<UPF version="2.0.1">
  <PP_INFO>
Converted from CP2K GTH format
       <PP_INPUTFILE>
Al 
    2    1    0    0
    0.45000000000000       1   -7.55476126000000
       2
    0.48743529000000       2    6.95993832000000   -1.88883584000000
                                                    2.43847659000000
    0.56218949000000       1    1.86529857000000
       </PP_INPUTFILE>
  </PP_INFO>
  <PP_HEADER
    generated="Generated in analytical, separable form"
    author="Goedecker/Hartwigsen/Hutter/Teter"
    date="Phys.Rev.B58, 3641 (1998); B54, 1703 (1996)"
    comment="This file generated by CP2K ATOM code"
    element="Al"
    pseudo_type="NC"
    relativistic="scalar"
    is_ultrasoft="F"
    is_paw="F"
    is_coulomb="F"
    has_so="F"
    has_wfc="T"
    has_gipaw="F"
    paw_as_gipaw="F"
    core_correction="F"
    functional="PBE"
    z_valence="3.0000000000"
    total_psenergy="-3.8713287000"
    wfc_cutoff="0.0000000000"
    rho_cutoff="0.0000000000"
    l_max="1"
    l_max_rho="0"
    l_local="-3"
    mesh_size="400"
    number_of_wfc="2"
    number_of_proj="3"/>
  <PP_MESH dx="1.0000000000000000e+00" mesh="400" xmin="1.0000000000000000e+00" rmax="3.7538232999999998e+01" zmesh="1.3000000000000000e+01">
    <PP_R type="real" size="400" columns="4">
       7.22853190584e-12  2.31286432529e-10  1.75607452138e-09  7.39856944537e-09
       2.25727037849e-08  5.61500555707e-08  1.21316292751e-07  2.36422320493e-07
       4.25829084447e-07  7.20744989012e-07  1.16005490915e-06  1.79113976717e-06
       2.67068567771e-06  3.86548166306e-06  5.45320496294e-06  7.52319298002e-06
       1.01772009232e-05  1.35301442221e-05  1.77108248203e-05  2.28626404723e-05
       2.91442761927e-05  3.67303770427e-05  4.58122014526e-05  5.65982543296e-05
       6.93148992117e-05  8.42069487776e-05  1.01538233049e-04  1.21592144665e-04
       1.44672160631e-04  1.71102340018e-04  2.01227797072e-04  2.35415149303e-04
       2.74052940106e-04  3.17552035547e-04  3.66345994967e-04  4.20891415136e-04
       4.81668247687e-04  5.49180089643e-04  6.23954446896e-04  7.06542970501e-04
       7.97521665771e-04  8.97491074118e-04  1.00707642770e-03  1.12692777695e-03
       1.25772009112e-03  1.40015333198e-03  1.55495250098e-03  1.72286765998e-03
       1.90467392601e-03  2.10117144037e-03  2.31318531236e-03  2.54156553820e-03
       2.78718689553e-03  3.05094881400e-03  3.33377522260e-03  3.63661437407e-03
       3.96043864728e-03  4.30624432799e-03  4.67505136882e-03  5.06790312903e-03
       5.48586609482e-03  5.93002958103e-03  6.40150541486e-03  6.90142760243e-03
       7.43095197903e-03  7.99125584389e-03  8.58353758021e-03  9.20901626139e-03
       9.86893124424e-03  1.05645417501e-02  1.12971264349e-02  1.20679829481e-02
       1.28784274833e-02  1.37297943191e-02  1.46234353530e-02  1.55607196278e-02
       1.65430328521e-02  1.75717769162e-02  1.86483694024e-02  1.97742430934e-02
       2.09508454764e-02  2.21796382464e-02  2.34620968078e-02  2.47997097761e-02
       2.61939784799e-02  2.76464164637e-02  2.91585489930e-02  3.07319125619e-02
       3.23680544040e-02  3.40685320070e-02  3.58349126321e-02  3.76687728386e-02
       3.95716980139e-02  4.15452819102e-02  4.35911261879e-02  4.57108399664e-02
       4.79060393828e-02  5.01783471587e-02  5.25293921763e-02  5.49608090629e-02
       5.74742377858e-02  6.00713232566e-02  6.27537149461e-02  6.55230665091e-02
       6.83810354214e-02  7.13292826268e-02  7.43694721957e-02  7.75032709962e-02
       8.07323483757e-02  8.40583758557e-02  8.74830268379e-02  9.10079763235e-02
       9.46349006441e-02  9.83654772053e-02  1.02201384244e-01  1.06144300596e-01
       1.10195905480e-01  1.14357878290e-01  1.18631898405e-01  1.23019645005e-01
       1.27522796911e-01  1.32143032424e-01  1.36882029186e-01  1.41741464052e-01
       1.46723012974e-01  1.51828350893e-01  1.57059151655e-01  1.62417087924e-01
       1.67903831121e-01  1.73521051369e-01  1.79270417446e-01  1.85153596759e-01
       1.91172255326e-01  1.97328057764e-01  2.03622667296e-01  2.10057745770e-01
       2.16634953680e-01  2.23355950208e-01  2.30222393274e-01  2.37235939592e-01
       2.44398244747e-01  2.51710963269e-01  2.59175748728e-01  2.66794253839e-01
       2.74568130569e-01  2.82499030260e-01  2.90588603761e-01  2.98838501574e-01
       3.07250373996e-01  3.15825871286e-01  3.24566643833e-01  3.33474342335e-01
       3.42550617983e-01  3.51797122663e-01  3.61215509160e-01  3.70807431370e-01
       3.80574544524e-01  3.90518505419e-01  4.00640972657e-01  4.10943606896e-01
       4.21428071099e-01  4.32096030808e-01  4.42949154406e-01  4.53989113405e-01
       4.65217582730e-01  4.76636241017e-01  4.88246770917e-01  5.00050859406e-01
       5.12050198107e-01  5.24246483615e-01  5.36641417835e-01  5.49236708323e-01
       5.62034068637e-01  5.75035218695e-01  5.88241885146e-01  6.01655801736e-01
       6.15278709697e-01  6.29112358134e-01  6.43158504427e-01  6.57418914630e-01
       6.71895363892e-01  6.86589636877e-01  7.01503528194e-01  7.16638842840e-01
       7.31997396644e-01  7.47581016724e-01  7.63391541957e-01  7.79430823446e-01
       7.95700725012e-01  8.12203123679e-01  8.28939910182e-01  8.45912989478e-01
       8.63124281265e-01  8.80575720517e-01  8.98269258026e-01  9.16206860955e-01
       9.34390513401e-01  9.52822216969e-01  9.71503991362e-01  9.90437874975e-01
       1.00962592551e+00  1.02907022059e+00  1.04877285840e+00  1.06873595834e+00
       1.08896166167e+00  1.10945213221e+00  1.13020955700e+00  1.15123614703e+00
       1.17253413794e+00  1.19410579078e+00  1.21595339271e+00  1.23807925785e+00
       1.26048572797e+00  1.28317517335e+00  1.30614999360e+00  1.32941261848e+00
       1.35296550876e+00  1.37681115710e+00  1.40095208896e+00  1.42539086350e+00
       1.45013007454e+00  1.47517235154e+00  1.50052036053e+00  1.52617680519e+00
       1.55214442785e+00  1.57842601057e+00  1.60502437624e+00  1.63194238966e+00
       1.65918295875e+00  1.68674903569e+00  1.71464361814e+00  1.74286975047e+00
       1.77143052508e+00  1.80032908367e+00  1.82956861859e+00  1.85915237427e+00
       1.88908364858e+00  1.91936579436e+00  1.95000222087e+00  1.98099639540e+00
       2.01235184480e+00  2.04407215718e+00  2.07616098357e+00  2.10862203968e+00
       2.14145910766e+00  2.17467603802e+00  2.20827675146e+00  2.24226524089e+00
       2.27664557341e+00  2.31142189244e+00  2.34659841990e+00  2.38217945835e+00
       2.41816939337e+00  2.45457269592e+00  2.49139392475e+00  2.52863772900e+00
       2.56630885075e+00  2.60441212779e+00  2.64295249638e+00  2.68193499418e+00
       2.72136476318e+00  2.76124705291e+00  2.80158722354e+00  2.84239074930e+00
       2.88366322184e+00  2.92541035387e+00  2.96763798281e+00  3.01035207467e+00
       3.05355872799e+00  3.09726417797e+00  3.14147480079e+00  3.18619711802e+00
       3.23143780123e+00  3.27720367684e+00  3.32350173102e+00  3.37033911495e+00
       3.41772315014e+00  3.46566133409e+00  3.51416134605e+00  3.56323105315e+00
       3.61287851667e+00  3.66311199862e+00  3.71393996861e+00  3.76537111099e+00
       3.81741433227e+00  3.87007876892e+00  3.92337379544e+00  3.97730903285e+00
       4.03189435749e+00  4.08713991025e+00  4.14305610626e+00  4.19965364490e+00
       4.25694352037e+00  4.31493703276e+00  4.37364579952e+00  4.43308176763e+00
       4.49325722620e+00  4.55418481982e+00  4.61587756241e+00  4.67834885190e+00
       4.74161248552e+00  4.80568267591e+00  4.87057406808e+00  4.93630175712e+00
       5.00288130699e+00  5.07032877013e+00  5.13866070824e+00  5.20789421408e+00
       5.27804693449e+00  5.34913709465e+00  5.42118352367e+00  5.49420568167e+00
       5.56822368827e+00  5.64325835285e+00  5.71933120643e+00  5.79646453548e+00
       5.87468141775e+00  5.95400576017e+00  6.03446233910e+00  6.11607684305e+00
       6.19887591802e+00  6.28288721572e+00  6.36813944483e+00  6.45466242560e+00
       6.54248714801e+00  6.63164583376e+00  6.72217200241e+00  6.81410054208e+00
       6.90746778497e+00  7.00231158817e+00  7.09867142021e+00  7.19658845383e+00
       7.29610566552e+00  7.39726794245e+00  7.50012219742e+00  7.60471749259e+00
       7.71110517277e+00  7.81933900930e+00  7.92947535534e+00  8.04157331379e+00
       8.15569491921e+00  8.27190533484e+00  8.39027306665e+00  8.51087019584e+00
       8.63377263206e+00  8.75906038931e+00  8.88681788726e+00  9.01713428073e+00
       9.15010382043e+00  9.28582624889e+00  9.42440723554e+00  9.56595885564e+00
       9.71060011879e+00  9.85845755290e+00  1.00096658511e+01  1.01643685896e+01
       1.03227190264e+01  1.04848809919e+01  1.06510298839e+01  1.08213537828e+01
       1.09960547046e+01  1.11753500125e+01  1.13594740119e+01  1.15486797575e+01
       1.17432411096e+01  1.19434550779e+01  1.21496445077e+01  1.23621611644e+01
       1.25813892956e+01  1.28077497563e+01  1.30417048124e+01  1.32837637582e+01
       1.35344895202e+01  1.37945064614e+01  1.40645096609e+01  1.43452760122e+01
       1.46376775900e+01  1.49426978619e+01  1.52614515069e+01  1.55952088472e+01
       1.59454262445e+01  1.63137843006e+01  1.67022363949e+01  1.71130711103e+01
       1.75489936059e+01  1.80132332876e+01  1.85096886807e+01  1.90431260874e+01
       1.96194579189e+01  2.02461424280e+01  2.09327744956e+01  2.16919887596e+01
       2.25408969076e+01  2.35034897804e+01  2.46149037070e+01  2.59296118995e+01
       2.75388728474e+01  2.96137651572e+01  3.25383656839e+01  3.75382328098e+01
    </PP_R>
    <PP_RAB type="real" size="400" columns="4">
       3.61412465855e-11  5.78188964494e-10  2.92648282218e-09  9.24648195069e-09
       2.25661064928e-08  4.67720198933e-08  8.66048561826e-08  1.47653397850e-07
       2.36347711306e-07  3.59951248387e-07  5.26551923849e-07  7.45052180357e-07
       1.02515805405e-06  1.37736725537e-06  1.81295628150e-06  2.34396657848e-06
       2.98318977251e-06  3.74415199212e-06  4.64109730401e-06  5.68897028740e-06
       6.90339777347e-06  8.30066977780e-06  9.89771965563e-06  1.17121035113e-05
       1.37619788945e-05  1.60660828183e-05  1.86437091343e-05  2.15146853016e-05
       2.46993485900e-05  2.82185217549e-05  3.20934882265e-05  3.63459668547e-05
       4.09980862524e-05  4.60723587821e-05  5.15916542287e-05  5.75791732062e-05
       6.40584203412e-05  7.10531772822e-05  7.85874755801e-05  8.66855694856e-05
       9.53719087129e-05  1.04671111214e-04  1.14607936011e-04  1.25207256136e-04
       1.36494031713e-04  1.48493283248e-04  1.61230065148e-04  1.74729439530e-04
       1.89016450357e-04  2.04116097938e-04  2.20053313843e-04  2.36852936265e-04
       2.54539685870e-04  2.73138142168e-04  2.92672720446e-04  3.13167649293e-04
       3.34646948751e-04  3.57134409115e-04  3.80653570425e-04  4.05227702659e-04
       4.30879786667e-04  4.57632495857e-04  4.85508178657e-04  5.14528841780e-04
       5.44716134295e-04  5.76091332528e-04  6.08675325798e-04  6.42488603009e-04
       6.77551240098e-04  7.13882888342e-04  7.51502763545e-04  7.90429636085e-04
       8.30681821840e-04  8.72277173981e-04  9.15233075636e-04  9.59566433411e-04
       1.00529367177e-03  1.05243072828e-03  1.10099304962e-03  1.15099558855e-03
       1.20245280156e-03  1.25537864739e-03  1.30978658629e-03  1.36568958013e-03
       1.42310009316e-03  1.48203009352e-03  1.54249105553e-03  1.60449396261e-03
       1.66804931085e-03  1.73316711327e-03  1.79985690471e-03  1.86812774726e-03
       1.93798823631e-03  2.00944650717e-03  2.08251024216e-03  2.15718667826e-03
       2.23348261517e-03  2.31140442393e-03  2.39095805584e-03  2.47214905185e-03
       2.55498255237e-03  2.63946330735e-03  2.72559568672e-03  2.81338369116e-03
       2.90283096313e-03  2.99394079816e-03  3.08671615638e-03  3.18115967427e-03
       3.27727367655e-03  3.37506018837e-03  3.47452094746e-03  3.57565741662e-03
       3.67847079612e-03  3.78296203635e-03  3.88913185047e-03  3.99698072711e-03
       4.10650894313e-03  4.21771657643e-03  4.33060351870e-03  4.44516948823e-03
       4.56141404268e-03  4.67933659180e-03  4.79893641013e-03  4.92021264962e-03
       5.04316435224e-03  5.16779046239e-03  5.29408983939e-03  5.42206126976e-03
       5.55170347939e-03  5.68301514572e-03  5.81599490964e-03  5.95064138743e-03
       6.08695318243e-03  6.22492889668e-03  6.36456714239e-03  6.50586655324e-03
       6.64882579562e-03  6.79344357961e-03  6.93971866996e-03  7.08764989676e-03
       7.23723616609e-03  7.38847647051e-03  7.54136989931e-03  7.69591564869e-03
       7.85211303184e-03  8.00996148875e-03  8.16946059599e-03  8.33061007627e-03
       8.49340980796e-03  8.65785983438e-03  8.82396037303e-03  8.99171182463e-03
       9.16111478213e-03  9.33217003952e-03  9.50487860054e-03  9.67924168738e-03
       9.85526074909e-03  1.00329374701e-02  1.02122737786e-02  1.03932718546e-02
       1.05759341383e-02  1.07602633380e-02  1.09462624384e-02  1.11339347085e-02
       1.13232837093e-02  1.15143133018e-02  1.17070276553e-02  1.19014312544e-02
       1.20975289074e-02  1.22953257540e-02  1.24948272730e-02  1.26960392898e-02
       1.28989679849e-02  1.31036199010e-02  1.33100019513e-02  1.35181214271e-02
       1.37279860059e-02  1.39396037594e-02  1.41529831613e-02  1.43681330957e-02
       1.45850628651e-02  1.48037821990e-02  1.50243012616e-02  1.52466306612e-02
       1.54707814582e-02  1.56967651740e-02  1.59245938001e-02  1.61542798069e-02
       1.63858361531e-02  1.66192762949e-02  1.68546141958e-02  1.70918643364e-02
       1.73310417239e-02  1.75721619032e-02  1.78152409666e-02  1.80602955647e-02
       1.83073429176e-02  1.85564008260e-02  1.88074876825e-02  1.90606224840e-02
       1.93158248431e-02  1.95731150013e-02  1.98325138416e-02  2.00940429014e-02
       2.03577243866e-02  2.06235811853e-02  2.08916368820e-02  2.11619157732e-02
       2.14344428818e-02  2.17092439735e-02  2.19863455727e-02  2.22657749796e-02
       2.25475602874e-02  2.28317304000e-02  2.31183150508e-02  2.34073448215e-02
       2.36988511620e-02  2.39928664106e-02  2.42894238152e-02  2.45885575550e-02
       2.48903027631e-02  2.51946955496e-02  2.55017730261e-02  2.58115733300e-02
       2.61241356509e-02  2.64395002570e-02  2.67577085230e-02  2.70788029585e-02
       2.74028272380e-02  2.77298262314e-02  2.80598460359e-02  2.83929340093e-02
       2.87291388041e-02  2.90685104029e-02  2.94111001556e-02  2.97569608172e-02
       3.01061465878e-02  3.04587131537e-02  3.08147177300e-02  3.11742191050e-02
       3.15372776865e-02  3.19039555494e-02  3.22743164852e-02  3.26484260542e-02
       3.30263516388e-02  3.34081624992e-02  3.37939298318e-02  3.41837268292e-02
       3.45776287430e-02  3.49757129491e-02  3.53780590159e-02  3.57847487745e-02
       3.61958663928e-02  3.66114984521e-02  3.70317340266e-02  3.74566647672e-02
       3.78863849879e-02  3.83209917562e-02  3.87605849875e-02  3.92052675434e-02
       3.96551453346e-02  4.01103274272e-02  4.05709261555e-02  4.10370572379e-02
       4.15088398991e-02  4.19863969978e-02  4.24698551591e-02  4.29593449144e-02
       4.34550008465e-02  4.39569617420e-02  4.44653707506e-02  4.49803755518e-02
       4.55021285297e-02  4.60307869559e-02  4.65665131809e-02  4.71094748354e-02
       4.76598450408e-02  4.82178026302e-02  4.87835323804e-02  4.93572252552e-02
       4.99390786613e-02  5.05292967168e-02  5.11280905335e-02  5.17356785135e-02
       5.23522866620e-02  5.29781489152e-02  5.36135074867e-02  5.42586132312e-02
       5.49137260290e-02  5.55791151901e-02  5.62550598814e-02  5.69418495762e-02
       5.76397845305e-02  5.83491762843e-02  5.90703481923e-02  5.98036359845e-02
       6.05493883598e-02  6.13079676134e-02  6.20797503018e-02  6.28651279469e-02
       6.36645077828e-02  6.44783135474e-02  6.53069863229e-02  6.61509854281e-02
       6.70107893669e-02  6.78868968360e-02  6.87798277976e-02  6.96901246213e-02
       7.06183532999e-02  7.15651047463e-02  7.25309961761e-02  7.35166725840e-02
       7.45228083204e-02  7.55501087773e-02  7.65993121914e-02  7.76711915748e-02
       7.87665567834e-02  7.98862567351e-02  8.10311817903e-02  8.22022663084e-02
       8.34004913967e-02  8.46268878675e-02  8.58825394232e-02  8.71685860891e-02
       8.84862279179e-02  8.98367289899e-02  9.12214217379e-02  9.26417116279e-02
       9.40990822294e-02  9.55951007141e-02  9.71314238267e-02  9.87098043742e-02
       1.00332098288e-01  1.02000272319e-01  1.03716412432e-01  1.05482732973e-01
       1.07301586698e-01  1.09175475763e-01  1.11107063760e-01  1.13099188958e-01
       1.15154878853e-01  1.17277366205e-01  1.19470106734e-01  1.21736798670e-01
       1.24081404414e-01  1.26508174543e-01  1.29021674500e-01  1.31626814292e-01
       1.34328881621e-01  1.37133578915e-01  1.40047064795e-01  1.43076000627e-01
       1.46227602890e-01  1.49509702229e-01  1.52930810211e-01  1.56500194981e-01
       1.60227967241e-01  1.64125178212e-01  1.68203931607e-01  1.72477511980e-01
       1.76960532329e-01  1.81669104410e-01  1.86621035940e-01  1.91836059782e-01
       1.97336101321e-01  2.03145591685e-01  2.09291836235e-01  2.15805450050e-01
       2.22720875073e-01  2.30076997349e-01  2.37917887698e-01  2.46293695651e-01
       2.55261734930e-01  2.64887810143e-01  2.75247849657e-01  2.86429930338e-01
       2.98536808495e-01  3.11689111057e-01  3.26029397081e-01  3.41727379682e-01
       3.58986714553e-01  3.78053932212e-01  3.99230347686e-01  4.22888173580e-01
       4.49492675599e-01  4.79633190252e-01  5.14067435763e-01  5.53786274450e-01
       6.00110855785e-01  6.54842747474e-01  7.20504143675e-01  8.00738214302e-01
       9.01009712949e-01  1.02990611082e+00  1.20173985634e+00  1.44227336796e+00
       1.80303143236e+00  2.40423865599e+00  3.60656595712e+00  7.21335303926e+00
    </PP_RAB>
  </PP_MESH>
  <PP_LOCAL type="real" size="400" columns="4">
    -2.57479833307e+01 -2.57479833307e+01 -2.57479833307e+01 -2.57479833307e+01
    -2.57479833307e+01 -2.57479833307e+01 -2.57479833307e+01 -2.57479833307e+01
    -2.57479833307e+01 -2.57479833307e+01 -2.57479833306e+01 -2.57479833306e+01
    -2.57479833304e+01 -2.57479833300e+01 -2.57479833293e+01 -2.57479833281e+01
    -2.57479833259e+01 -2.57479833223e+01 -2.57479833163e+01 -2.57479833066e+01
    -2.57479832916e+01 -2.57479832686e+01 -2.57479832340e+01 -2.57479831832e+01
    -2.57479831094e+01 -2.57479830041e+01 -2.57479828558e+01 -2.57479826497e+01
    -2.57479823666e+01 -2.57479819822e+01 -2.57479814655e+01 -2.57479807779e+01
    -2.57479798711e+01 -2.57479786857e+01 -2.57479771486e+01 -2.57479751706e+01
    -2.57479726438e+01 -2.57479694380e+01 -2.57479653974e+01 -2.57479603357e+01
    -2.57479540325e+01 -2.57479462271e+01 -2.57479366131e+01 -2.57479248318e+01
    -2.57479104650e+01 -2.57478930269e+01 -2.57478719554e+01 -2.57478466024e+01
    -2.57478162234e+01 -2.57477799655e+01 -2.57477368550e+01 -2.57476857838e+01
    -2.57476254945e+01 -2.57475545638e+01 -2.57474713860e+01 -2.57473741531e+01
    -2.57472608358e+01 -2.57471291611e+01 -2.57469765893e+01 -2.57468002895e+01
    -2.57465971129e+01 -2.57463635647e+01 -2.57460957745e+01 -2.57457894640e+01
    -2.57454399140e+01 -2.57450419286e+01 -2.57445897975e+01 -2.57440772570e+01
    -2.57434974474e+01 -2.57428428704e+01 -2.57421053423e+01 -2.57412759462e+01
    -2.57403449820e+01 -2.57393019130e+01 -2.57381353122e+01 -2.57368328041e+01
    -2.57353810060e+01 -2.57337654659e+01 -2.57319705989e+01 -2.57299796205e+01
    -2.57277744784e+01 -2.57253357816e+01 -2.57226427276e+01 -2.57196730272e+01
    -2.57164028272e+01 -2.57128066318e+01 -2.57088572210e+01 -2.57045255678e+01
    -2.56997807537e+01 -2.56945898826e+01 -2.56889179931e+01 -2.56827279696e+01
    -2.56759804522e+01 -2.56686337463e+01 -2.56606437309e+01 -2.56519637666e+01
    -2.56425446041e+01 -2.56323342920e+01 -2.56212780862e+01 -2.56093183589e+01
    -2.55963945103e+01 -2.55824428811e+01 -2.55673966677e+01 -2.55511858398e+01
    -2.55337370618e+01 -2.55149736177e+01 -2.54948153404e+01 -2.54731785471e+01
    -2.54499759794e+01 -2.54251167516e+01 -2.53985063051e+01 -2.53700463728e+01
    -2.53396349515e+01 -2.53071662863e+01 -2.52725308650e+01 -2.52356154261e+01
    -2.51963029803e+01 -2.51544728471e+01 -2.51100007071e+01 -2.50627586730e+01
    -2.50126153783e+01 -2.49594360875e+01 -2.49030828270e+01 -2.48434145402e+01
    -2.47802872667e+01 -2.47135543481e+01 -2.46430666616e+01 -2.45686728825e+01
    -2.44902197777e+01 -2.44075525319e+01 -2.43205151062e+01 -2.42289506328e+01
    -2.41327018454e+01 -2.40316115470e+01 -2.39255231158e+01 -2.38142810506e+01
    -2.36977315557e+01 -2.35757231669e+01 -2.34481074163e+01 -2.33147395394e+01
    -2.31754792208e+01 -2.30301913800e+01 -2.28787469947e+01 -2.27210239615e+01
    -2.25569079902e+01 -2.23862935310e+01 -2.22090847308e+01 -2.20251964143e+01
    -2.18345550875e+01 -2.16370999569e+01 -2.14327839604e+01 -2.12215748028e+01
    -2.10034559903e+01 -2.07784278551e+01 -2.05465085627e+01 -2.03077350937e+01
    -2.00621641894e+01 -1.98098732519e+01 -1.95509611878e+01 -1.92855491842e+01
    -1.90137814059e+01 -1.87358256014e+01 -1.84518736047e+01 -1.81621417228e+01
    -1.78668709939e+01 -1.75663273061e+01 -1.72608013637e+01 -1.69506084907e+01
    -1.66360882598e+01 -1.63176039383e+01 -1.59955417421e+01 -1.56703098912e+01
    -1.53423374600e+01 -1.50120730207e+01 -1.46799830776e+01 -1.43465502929e+01
    -1.40122715080e+01 -1.36776555666e+01 -1.33432209482e+01 -1.30094932251e+01
    -1.26770023571e+01 -1.23462798420e+01 -1.20178557456e+01 -1.16922556322e+01
    -1.13699974259e+01 -1.10515882312e+01 -1.07375211459e+01 -1.04282720995e+01
    -1.01242967558e+01 -9.82602751321e+00 -9.53387064392e+00 -9.24820360704e+00
    -8.96937257418e+00 -8.69769020222e+00 -8.43343368695e+00 -8.17684312807e+00
    -7.92812023262e+00 -7.68742737939e+00 -7.45488706245e+00 -7.23058172601e+00
    -7.01455399734e+00 -6.80680731792e+00 -6.60730696659e+00 -6.41598146207e+00
    -6.23272432524e+00 -6.05739617576e+00 -5.88982713131e+00 -5.72981947241e+00
    -5.57715053132e+00 -5.43157575908e+00 -5.29283192247e+00 -5.16064038022e+00
    -5.03471038743e+00 -4.91474237708e+00 -4.80043116957e+00 -4.69146906331e+00
    -4.58754876348e+00 -4.48836611035e+00 -4.39362257432e+00 -4.30302749063e+00
    -4.21630001337e+00 -4.13317077528e+00 -4.05338324651e+00 -3.97669479253e+00
    -3.90287743747e+00 -3.83171834535e+00 -3.76302003664e+00 -3.69660036218e+00
    -3.63229225987e+00 -3.56994332221e+00 -3.50941520439e+00 -3.45058290309e+00
    -3.39333393625e+00 -3.33756745250e+00 -3.28319329771e+00 -3.23013106320e+00
    -3.17830913781e+00 -3.12766378244e+00 -3.07813824291e+00 -3.02968191303e+00
    -2.98224955721e+00 -2.93580059841e+00 -2.89029847475e+00 -2.84571006557e+00
    -2.80200518578e+00 -2.75915614567e+00 -2.71713737211e+00 -2.67592508607e+00
    -2.63549703114e+00 -2.59583224717e+00 -2.55691088333e+00 -2.51871404504e+00
    -2.48122366962e+00 -2.44442242582e+00 -2.40829363301e+00 -2.37282119645e+00
    -2.33798955525e+00 -2.30378364048e+00 -2.27018884125e+00 -2.23719097685e+00
    -2.20477627359e+00 -2.17293134521e+00 -2.14164317602e+00 -2.11089910600e+00
    -2.08068681753e+00 -2.05099432324e+00 -2.02180995480e+00 -1.99312235239e+00
    -1.96492045480e+00 -1.93719349000e+00 -1.90993096609e+00 -1.88312266265e+00
    -1.85675862244e+00 -1.83082914332e+00 -1.80532477058e+00 -1.78023628941e+00
    -1.75555471770e+00 -1.73127129907e+00 -1.70737749612e+00 -1.68386498391e+00
    -1.66072564364e+00 -1.63795155656e+00 -1.61553499807e+00 -1.59346843197e+00
    -1.57174450499e+00 -1.55035604138e+00 -1.52929603775e+00 -1.50855765807e+00
    -1.48813422873e+00 -1.46801923393e+00 -1.44820631102e+00 -1.42868924615e+00
    -1.40946196990e+00 -1.39051855321e+00 -1.37185320326e+00 -1.35346025959e+00
    -1.33533419031e+00 -1.31746958839e+00 -1.29986116808e+00 -1.28250376146e+00
    -1.26539231502e+00 -1.24852188641e+00 -1.23188764120e+00 -1.21548484984e+00
    -1.19930888459e+00 -1.18335521660e+00 -1.16761941305e+00 -1.15209713434e+00
    -1.13678413142e+00 -1.12167624307e+00 -1.10676939340e+00 -1.09205958925e+00
    -1.07754291780e+00 -1.06321554408e+00 -1.04907370870e+00 -1.03511372549e+00
    -1.02133197927e+00 -1.00772492364e+00 -9.94289078768e-01 -9.81021029325e-01
    -9.67917422344e-01 -9.54974965171e-01 -9.42190423433e-01 -9.29560619035e-01
    -9.17082428175e-01 -9.04752779387e-01 -8.92568651598e-01 -8.80527072201e-01
    -8.68625115133e-01 -8.56859898970e-01 -8.45228585016e-01 -8.33728375396e-01
    -8.22356511140e-01 -8.11110270262e-01 -7.99986965820e-01 -7.88983943960e-01
    -7.78098581924e-01 -7.67328286043e-01 -7.56670489676e-01 -7.46122651112e-01
    -7.35682251413e-01 -7.25346792199e-01 -7.15113793358e-01 -7.04980790675e-01
    -6.94945333367e-01 -6.85004981507e-01 -6.75157303336e-01 -6.65399872421e-01
    -6.55730264678e-01 -6.46146055200e-01 -6.36644814899e-01 -6.27224106913e-01
    -6.17881482772e-01 -6.08614478260e-01 -5.99420608967e-01 -5.90297365461e-01
    -5.81242208050e-01 -5.72252561055e-01 -5.63325806556e-01 -5.54459277504e-01
    -5.45650250131e-01 -5.36895935544e-01 -5.28193470378e-01 -5.19539906376e-01
    -5.10932198702e-01 -5.02367192814e-01 -4.93841609622e-01 -4.85352028677e-01
    -4.76894869003e-01 -4.68466367175e-01 -4.60062552122e-01 -4.51679216011e-01
    -4.43311880441e-01 -4.34955756973e-01 -4.26605700779e-01 -4.18256155886e-01
    -4.09901090054e-01 -4.01533916798e-01 -3.93147401299e-01 -3.84733545975e-01
    -3.76283450063e-01 -3.67787135679e-01 -3.59233330084e-01 -3.50609189978e-01
    -3.41899947925e-01 -3.33088452484e-01 -3.24154560538e-01 -3.15074319861e-01
    -3.05818847024e-01 -2.96352750720e-01 -2.86631855765e-01 -2.76599811409e-01
    -2.66182841996e-01 -2.55281239342e-01 -2.43754762213e-01 -2.31395673150e-01
    -2.17873840852e-01 -2.02608481838e-01 -1.84397706335e-01 -1.59837039490e-01
  </PP_LOCAL>
  <PP_NONLOCAL>
    <PP_BETA.1 type="real" size="400" columns="4" index="1" angular_momentum="0" cutoff_radius_index="400">
       6.38185852656e-11  2.04195998681e-09  1.55038662117e-08  6.53197967642e-08
       1.99287772391e-07  4.95732350052e-07  1.07106591960e-06  2.08730323330e-06
       3.75951992581e-06  6.36324583403e-06  1.02417840989e-05  1.58134469685e-05
       2.35786995006e-05  3.41272023576e-05  4.81447450755e-05  6.64200613433e-05
       8.98515180123e-05  1.19453669653e-04  1.56363670784e-04  2.01847538031e-04
       2.57306254729e-04  3.24281710729e-04  4.04462470357e-04  4.99689361895e-04
       6.11960882018e-04  7.43438409117e-04  8.96451219611e-04  1.07350130172e-03
       1.27726796152e-03  1.51061221629e-03  1.77658097082e-03  2.07841097226e-03
       2.41953253980e-03  2.80357306576e-03  3.23436028475e-03  3.71592530830e-03
       4.25250542254e-03  4.84854664666e-03  5.50870605061e-03  6.23785383044e-03
       7.04107514023e-03  7.92367167982e-03  8.89116303750e-03  9.94928778768e-03
       1.11040043431e-02  1.23614915616e-02  1.37281491080e-02  1.52105975709e-02
       1.68156783346e-02  1.85504532071e-02  2.04222038036e-02  2.24384306862e-02
       2.46068522586e-02  2.69354034176e-02  2.94322339576e-02  3.21057067297e-02
       3.49643955517e-02  3.80170828676e-02  4.12727571538e-02  4.47406100668e-02
       4.84300333285e-02  5.23506153440e-02  5.65121375422e-02  6.09245704337e-02
       6.55980693741e-02  7.05429700231e-02  7.57697834837e-02  8.12891911097e-02
       8.71120389621e-02  9.32493318964e-02  9.97122272596e-02  1.06512028172e-01
       1.13660176371e-01  1.21168244580e-01  1.29047928380e-01  1.37311037544e-01
       1.45969486798e-01  1.55035285961e-01  1.64520529426e-01  1.74437384942e-01
       1.84798081618e-01  1.95614897126e-01  2.06900144019e-01  2.18666155115e-01
       2.30925267869e-01  2.43689807679e-01  2.56972070025e-01  2.70784301383e-01
       2.85138678830e-01  3.00047288237e-01  3.15522100971e-01  3.31574949018e-01
       3.48217498410e-01  3.65461220877e-01  3.83317363593e-01  4.01796916948e-01
       4.20910580187e-01  4.40668724861e-01  4.61081355923e-01  4.82158070403e-01
       5.03908013521e-01  5.26339832134e-01  5.49461625415e-01  5.73280892643e-01
       5.97804478013e-01  6.23038512361e-01  6.48988351716e-01  6.75658512592e-01
       7.03052603946e-01  7.31173255746e-01  7.60022044088e-01  7.89599412836e-01
       8.19904591764e-01  8.50935511212e-01  8.82688713264e-01  9.15159259522e-01
       9.48340635534e-01  9.82224652009e-01  1.01680134294e+00  1.05205886086e+00
       1.08798336938e+00  1.12455893337e+00  1.16176740709e+00  1.19958832053e+00
       1.23799876458e+00  1.27697327533e+00  1.31648371824e+00  1.35649917264e+00
       1.39698581735e+00  1.43790681824e+00  1.47922221843e+00  1.52088883223e+00
       1.56286014375e+00  1.60508621134e+00  1.64751357899e+00  1.69008519606e+00
       1.73274034667e+00  1.77541459023e+00  1.81803971463e+00  1.86054370378e+00
       1.90285072116e+00  1.94488111117e+00  1.98655142013e+00  2.02777443880e+00
       2.06845926840e+00  2.10851141193e+00  2.14783289302e+00  2.18632240394e+00
       2.22387548490e+00  2.26038473638e+00  2.29574006627e+00  2.32982897345e+00
       2.36253686929e+00  2.39374743838e+00  2.42334303946e+00  2.45120514750e+00
       2.47721483726e+00  2.50125330853e+00  2.52320245274e+00  2.54294546026e+00
       2.56036746712e+00  2.57535623939e+00  2.58780289298e+00  2.59760264579e+00
       2.60465559860e+00  2.60886754059e+00  2.61015077418e+00  2.60842495378e+00
       2.60361793167e+00  2.59566660416e+00  2.58451774980e+00  2.57012885123e+00
       2.55246889153e+00  2.53151911498e+00  2.50727374227e+00  2.47974062920e+00
       2.44894185804e+00  2.41491425040e+00  2.37770979029e+00  2.33739594671e+00
       2.29405588489e+00  2.24778855620e+00  2.19870865750e+00  2.14694645153e+00
       2.09264744129e+00  2.03597189280e+00  1.97709420223e+00  1.91620210537e+00
       1.85349572935e+00  1.78918648901e+00  1.72349583266e+00  1.65665384422e+00
       1.58889771191e+00  1.52047007580e+00  1.45161726937e+00  1.38258747273e+00