<UPF version="2.0.1">
  <PP_INFO>
Converted from CP2K GTH format
       <PP_INPUTFILE>
B 
    2    1    0    0
    0.41899145000000       2   -5.85946171000000    0.90375643000000
       1
    0.37132046000000       1    6.29728018000000
       </PP_INPUTFILE>
  </PP_INFO>
  <PP_HEADER
    generated="Generated in analytical, separable form"
    author="Goedecker/Hartwigsen/Hutter/Teter"
    date="Phys.Rev.B58, 3641 (1998); B54, 1703 (1996)"
    comment="This file generated by CP2K ATOM code"
    element="B"
    pseudo_type="NC"
    relativistic="scalar"
    is_ultrasoft="F"
    is_paw="F"
    is_coulomb="F"
    has_so="F"
    has_wfc="T"
    has_gipaw="F"
    paw_as_gipaw="F"
    core_correction="F"
    functional="PBE"
    z_valence="3.0000000000"
    total_psenergy="-5.1750001000"
    wfc_cutoff="0.0000000000"
    rho_cutoff="0.0000000000"
    l_max="1"
    l_max_rho="0"
    l_local="-3"
    mesh_size="400"
    number_of_wfc="2"
    number_of_proj="1"/>
  <PP_MESH dx="1.0000000000000000e+00" mesh="400" xmin="1.0000000000000000e+00" rmax="3.7538232999999998e+01" zmesh="5.0000000000000000e+00">
    <PP_R type="real" size="400" columns="4">
       7.22853190584e-12  2.31286432529e-10  1.75607452138e-09  7.39856944537e-09
       2.25727037849e-08  5.61500555707e-08  1.21316292751e-07  2.36422320493e-07
       4.25829084447e-07  7.20744989012e-07  1.16005490915e-06  1.79113976717e-06
       2.67068567771e-06  3.86548166306e-06  5.45320496294e-06  7.52319298002e-06
       1.01772009232e-05  1.35301442221e-05  1.77108248203e-05  2.28626404723e-05
       2.91442761927e-05  3.67303770427e-05  4.58122014526e-05  5.65982543296e-05
       6.93148992117e-05  8.42069487776e-05  1.01538233049e-04  1.21592144665e-04
       1.44672160631e-04  1.71102340018e-04  2.01227797072e-04  2.35415149303e-04
       2.74052940106e-04  3.17552035547e-04  3.66345994967e-04  4.20891415136e-04
       4.81668247687e-04  5.49180089643e-04  6.23954446896e-04  7.06542970501e-04
       7.97521665771e-04  8.97491074118e-04  1.00707642770e-03  1.12692777695e-03
       1.25772009112e-03  1.40015333198e-03  1.55495250098e-03  1.72286765998e-03
       1.90467392601e-03  2.10117144037e-03  2.31318531236e-03  2.54156553820e-03
       2.78718689553e-03  3.05094881400e-03  3.33377522260e-03  3.63661437407e-03
       3.96043864728e-03  4.30624432799e-03  4.67505136882e-03  5.06790312903e-03
       5.48586609482e-03  5.93002958103e-03  6.40150541486e-03  6.90142760243e-03
       7.43095197903e-03  7.99125584389e-03  8.58353758021e-03  9.20901626139e-03
       9.86893124424e-03  1.05645417501e-02  1.12971264349e-02  1.20679829481e-02
       1.28784274833e-02  1.37297943191e-02  1.46234353530e-02  1.55607196278e-02
       1.65430328521e-02  1.75717769162e-02  1.86483694024e-02  1.97742430934e-02
       2.09508454764e-02  2.21796382464e-02  2.34620968078e-02  2.47997097761e-02
       2.61939784799e-02  2.76464164637e-02  2.91585489930e-02  3.07319125619e-02
       3.23680544040e-02  3.40685320070e-02  3.58349126321e-02  3.76687728386e-02
       3.95716980139e-02  4.15452819102e-02  4.35911261879e-02  4.57108399664e-02
       4.79060393828e-02  5.01783471587e-02  5.25293921763e-02  5.49608090629e-02
       5.74742377858e-02  6.00713232566e-02  6.27537149461e-02  6.55230665091e-02
       6.83810354214e-02  7.13292826268e-02  7.43694721957e-02  7.75032709962e-02
       8.07323483757e-02  8.40583758557e-02  8.74830268379e-02  9.10079763235e-02
       9.46349006441e-02  9.83654772053e-02  1.02201384244e-01  1.06144300596e-01
       1.10195905480e-01  1.14357878290e-01  1.18631898405e-01  1.23019645005e-01
       1.27522796911e-01  1.32143032424e-01  1.36882029186e-01  1.41741464052e-01
       1.46723012974e-01  1.51828350893e-01  1.57059151655e-01  1.62417087924e-01
       1.67903831121e-01  1.73521051369e-01  1.79270417446e-01  1.85153596759e-01
       1.91172255326e-01  1.97328057764e-01  2.03622667296e-01  2.10057745770e-01
       2.16634953680e-01  2.23355950208e-01  2.30222393274e-01  2.37235939592e-01
       2.44398244747e-01  2.51710963269e-01  2.59175748728e-01  2.66794253839e-01
       2.74568130569e-01  2.82499030260e-01  2.90588603761e-01  2.98838501574e-01
       3.07250373996e-01  3.15825871286e-01  3.24566643833e-01  3.33474342335e-01
       3.42550617983e-01  3.51797122663e-01  3.61215509160e-01  3.70807431370e-01
       3.80574544524e-01  3.90518505419e-01  4.00640972657e-01  4.10943606896e-01
       4.21428071099e-01  4.32096030808e-01  4.42949154406e-01  4.53989113405e-01
       4.65217582730e-01  4.76636241017e-01  4.88246770917e-01  5.00050859406e-01
       5.12050198107e-01  5.24246483615e-01  5.36641417835e-01  5.49236708323e-01
       5.62034068637e-01  5.75035218695e-01  5.88241885146e-01  6.01655801736e-01
       6.15278709697e-01  6.29112358134e-01  6.43158504427e-01  6.57418914630e-01
       6.71895363892e-01  6.86589636877e-01  7.01503528194e-01  7.16638842840e-01
       7.31997396644e-01  7.47581016724e-01  7.63391541957e-01  7.79430823446e-01
       7.95700725012e-01  8.12203123679e-01  8.28939910182e-01  8.45912989478e-01
       8.63124281265e-01  8.80575720517e-01  8.98269258026e-01  9.16206860955e-01
       9.34390513401e-01  9.52822216969e-01  9.71503991362e-01  9.90437874975e-01
       1.00962592551e+00  1.02907022059e+00  1.04877285840e+00  1.06873595834e+00
       1.08896166167e+00  1.10945213221e+00  1.13020955700e+00  1.15123614703e+00
       1.17253413794e+00  1.19410579078e+00  1.21595339271e+00  1.23807925785e+00
       1.26048572797e+00  1.28317517335e+00  1.30614999360e+00  1.32941261848e+00
       1.35296550876e+00  1.37681115710e+00  1.40095208896e+00  1.42539086350e+00
       1.45013007454e+00  1.47517235154e+00  1.50052036053e+00  1.52617680519e+00
       1.55214442785e+00  1.57842601057e+00  1.60502437624e+00  1.63194238966e+00
       1.65918295875e+00  1.68674903569e+00  1.71464361814e+00  1.74286975047e+00
       1.77143052508e+00  1.80032908367e+00  1.82956861859e+00  1.85915237427e+00
       1.88908364858e+00  1.91936579436e+00  1.95000222087e+00  1.98099639540e+00
       2.01235184480e+00  2.04407215718e+00  2.07616098357e+00  2.10862203968e+00
       2.14145910766e+00  2.17467603802e+00  2.20827675146e+00  2.24226524089e+00
       2.27664557341e+00  2.31142189244e+00  2.34659841990e+00  2.38217945835e+00
       2.41816939337e+00  2.45457269592e+00  2.49139392475e+00  2.52863772900e+00
       2.56630885075e+00  2.60441212779e+00  2.64295249638e+00  2.68193499418e+00
       2.72136476318e+00  2.76124705291e+00  2.80158722354e+00  2.84239074930e+00
       2.88366322184e+00  2.92541035387e+00  2.96763798281e+00  3.01035207467e+00
       3.05355872799e+00  3.09726417797e+00  3.14147480079e+00  3.18619711802e+00
       3.23143780123e+00  3.27720367684e+00  3.32350173102e+00  3.37033911495e+00
       3.41772315014e+00  3.46566133409e+00  3.51416134605e+00  3.56323105315e+00
       3.61287851667e+00  3.66311199862e+00  3.71393996861e+00  3.76537111099e+00
       3.81741433227e+00  3.87007876892e+00  3.92337379544e+00  3.97730903285e+00
       4.03189435749e+00  4.08713991025e+00  4.14305610626e+00  4.19965364490e+00
       4.25694352037e+00  4.31493703276e+00  4.37364579952e+00  4.43308176763e+00
       4.49325722620e+00  4.55418481982e+00  4.61587756241e+00  4.67834885190e+00
       4.74161248552e+00  4.80568267591e+00  4.87057406808e+00  4.93630175712e+00
       5.00288130699e+00  5.07032877013e+00  5.13866070824e+00  5.20789421408e+00
       5.27804693449e+00  5.34913709465e+00  5.42118352367e+00  5.49420568167e+00
       5.56822368827e+00  5.64325835285e+00  5.71933120643e+00  5.79646453548e+00
       5.87468141775e+00  5.95400576017e+00  6.03446233910e+00  6.11607684305e+00
       6.19887591802e+00  6.28288721572e+00  6.36813944483e+00  6.45466242560e+00
       6.54248714801e+00  6.63164583376e+00  6.72217200241e+00  6.81410054208e+00
       6.90746778497e+00  7.00231158817e+00  7.09867142021e+00  7.19658845383e+00
       7.29610566552e+00  7.39726794245e+00  7.50012219742e+00  7.60471749259e+00
       7.71110517277e+00  7.81933900930e+00  7.92947535534e+00  8.04157331379e+00
       8.15569491921e+00  8.27190533484e+00  8.39027306665e+00  8.51087019584e+00
       8.63377263206e+00  8.75906038931e+00  8.88681788726e+00  9.01713428073e+00
       9.15010382043e+00  9.28582624889e+00  9.42440723554e+00  9.56595885564e+00
       9.71060011879e+00  9.85845755290e+00  1.00096658511e+01  1.01643685896e+01
       1.03227190264e+01  1.04848809919e+01  1.06510298839e+01  1.08213537828e+01
       1.09960547046e+01  1.11753500125e+01  1.13594740119e+01  1.15486797575e+01
       1.17432411096e+01  1.19434550779e+01  1.21496445077e+01  1.23621611644e+01
       1.25813892956e+01  1.28077497563e+01  1.30417048124e+01  1.32837637582e+01
       1.35344895202e+01  1.37945064614e+01  1.40645096609e+01  1.43452760122e+01
       1.46376775900e+01  1.49426978619e+01  1.52614515069e+01  1.55952088472e+01
       1.59454262445e+01  1.63137843006e+01  1.67022363949e+01  1.71130711103e+01
       1.75489936059e+01  1.80132332876e+01  1.85096886807e+01  1.90431260874e+01
       1.96194579189e+01  2.02461424280e+01  2.09327744956e+01  2.16919887596e+01
       2.25408969076e+01  2.35034897804e+01  2.46149037070e+01  2.59296118995e+01
       2.75388728474e+01  2.96137651572e+01  3.25383656839e+01  3.75382328098e+01
    </PP_R>
    <PP_RAB type="real" size="400" columns="4">
       3.61412465855e-11  5.78188964494e-10  2.92648282218e-09  9.24648195069e-09
       2.25661064928e-08  4.67720198933e-08  8.66048561826e-08  1.47653397850e-07
       2.36347711306e-07  3.59951248387e-07  5.26551923849e-07  7.45052180357e-07
       1.02515805405e-06  1.37736725537e-06  1.81295628150e-06  2.34396657848e-06
       2.98318977251e-06  3.74415199212e-06  4.64109730401e-06  5.68897028740e-06
       6.90339777347e-06  8.30066977780e-06  9.89771965563e-06  1.17121035113e-05
       1.37619788945e-05  1.60660828183e-05  1.86437091343e-05  2.15146853016e-05
       2.46993485900e-05  2.82185217549e-05  3.20934882265e-05  3.63459668547e-05
       4.09980862524e-05  4.60723587821e-05  5.15916542287e-05  5.75791732062e-05
       6.40584203412e-05  7.10531772822e-05  7.85874755801e-05  8.66855694856e-05
       9.53719087129e-05  1.04671111214e-04  1.14607936011e-04  1.25207256136e-04
       1.36494031713e-04  1.48493283248e-04  1.61230065148e-04  1.74729439530e-04
       1.89016450357e-04  2.04116097938e-04  2.20053313843e-04  2.36852936265e-04
       2.54539685870e-04  2.73138142168e-04  2.92672720446e-04  3.13167649293e-04
       3.34646948751e-04  3.57134409115e-04  3.80653570425e-04  4.05227702659e-04
       4.30879786667e-04  4.57632495857e-04  4.85508178657e-04  5.14528841780e-04
       5.44716134295e-04  5.76091332528e-04  6.08675325798e-04  6.42488603009e-04
       6.77551240098e-04  7.13882888342e-04  7.51502763545e-04  7.90429636085e-04
       8.30681821840e-04  8.72277173981e-04  9.15233075636e-04  9.59566433411e-04
       1.00529367177e-03  1.05243072828e-03  1.10099304962e-03  1.15099558855e-03
       1.20245280156e-03  1.25537864739e-03  1.30978658629e-03  1.36568958013e-03
       1.42310009316e-03  1.48203009352e-03  1.54249105553e-03  1.60449396261e-03
       1.66804931085e-03  1.73316711327e-03  1.79985690471e-03  1.86812774726e-03
       1.93798823631e-03  2.00944650717e-03  2.08251024216e-03  2.15718667826e-03
       2.23348261517e-03  2.31140442393e-03  2.39095805584e-03  2.47214905185e-03
       2.55498255237e-03  2.63946330735e-03  2.72559568672e-03  2.81338369116e-03
       2.90283096313e-03  2.99394079816e-03  3.08671615638e-03  3.18115967427e-03
       3.27727367655e-03  3.37506018837e-03  3.47452094746e-03  3.57565741662e-03
       3.67847079612e-03  3.78296203635e-03  3.88913185047e-03  3.99698072711e-03
       4.10650894313e-03  4.21771657643e-03  4.33060351870e-03  4.44516948823e-03
       4.56141404268e-03  4.67933659180e-03  4.79893641013e-03  4.92021264962e-03
       5.04316435224e-03  5.16779046239e-03  5.29408983939e-03  5.42206126976e-03
       5.55170347939e-03  5.68301514572e-03  5.81599490964e-03  5.95064138743e-03
       6.08695318243e-03  6.22492889668e-03  6.36456714239e-03  6.50586655324e-03
       6.64882579562e-03  6.79344357961e-03  6.93971866996e-03  7.08764989676e-03
       7.23723616609e-03  7.38847647051e-03  7.54136989931e-03  7.69591564869e-03
       7.85211303184e-03  8.00996148875e-03  8.16946059599e-03  8.33061007627e-03
       8.49340980796e-03  8.65785983438e-03  8.82396037303e-03  8.99171182463e-03
       9.16111478213e-03  9.33217003952e-03  9.50487860054e-03  9.67924168738e-03
       9.85526074909e-03  1.00329374701e-02  1.02122737786e-02  1.03932718546e-02
       1.05759341383e-02  1.07602633380e-02  1.09462624384e-02  1.11339347085e-02
       1.13232837093e-02  1.15143133018e-02  1.17070276553e-02  1.19014312544e-02
       1.20975289074e-02  1.22953257540e-02  1.24948272730e-02  1.26960392898e-02
       1.28989679849e-02  1.31036199010e-02  1.33100019513e-02  1.35181214271e-02
       1.37279860059e-02  1.39396037594e-02  1.41529831613e-02  1.43681330957e-02
       1.45850628651e-02  1.48037821990e-02  1.50243012616e-02  1.52466306612e-02
       1.54707814582e-02  1.56967651740e-02  1.59245938001e-02  1.61542798069e-02
       1.63858361531e-02  1.66192762949e-02  1.68546141958e-02  1.70918643364e-02
       1.73310417239e-02  1.75721619032e-02  1.78152409666e-02  1.80602955647e-02
       1.83073429176e-02  1.85564008260e-02  1.88074876825e-02  1.90606224840e-02
       1.93158248431e-02  1.95731150013e-02  1.98325138416e-02  2.00940429014e-02
       2.03577243866e-02  2.06235811853e-02  2.08916368820e-02  2.11619157732e-02
       2.14344428818e-02  2.17092439735e-02  2.19863455727e-02  2.22657749796e-02
       2.25475602874e-02  2.28317304000e-02  2.31183150508e-02  2.34073448215e-02
       2.36988511620e-02  2.39928664106e-02  2.42894238152e-02  2.45885575550e-02
       2.48903027631e-02  2.51946955496e-02  2.55017730261e-02  2.58115733300e-02
       2.61241356509e-02  2.64395002570e-02  2.67577085230e-02  2.70788029585e-02
       2.74028272380e-02  2.77298262314e-02  2.80598460359e-02  2.83929340093e-02
       2.87291388041e-02  2.90685104029e-02  2.94111001556e-02  2.97569608172e-02
       3.01061465878e-02  3.04587131537e-02  3.08147177300e-02  3.11742191050e-02
       3.15372776865e-02  3.19039555494e-02  3.22743164852e-02  3.26484260542e-02
       3.30263516388e-02  3.34081624992e-02  3.37939298318e-02  3.41837268292e-02
       3.45776287430e-02  3.49757129491e-02  3.53780590159e-02  3.57847487745e-02
       3.61958663928e-02  3.66114984521e-02  3.70317340266e-02  3.74566647672e-02
       3.78863849879e-02  3.83209917562e-02  3.87605849875e-02  3.92052675434e-02
       3.96551453346e-02  4.01103274272e-02  4.05709261555e-02  4.10370572379e-02
       4.15088398991e-02  4.19863969978e-02  4.24698551591e-02  4.29593449144e-02
       4.34550008465e-02  4.39569617420e-02  4.44653707506e-02  4.49803755518e-02
       4.55021285297e-02  4.60307869559e-02  4.65665131809e-02  4.71094748354e-02
       4.76598450408e-02  4.82178026302e-02  4.87835323804e-02  4.93572252552e-02
       4.99390786613e-02  5.05292967168e-02  5.11280905335e-02  5.17356785135e-02
       5.23522866620e-02  5.29781489152e-02  5.36135074867e-02  5.42586132312e-02
       5.49137260290e-02  5.55791151901e-02  5.62550598814e-02  5.69418495762e-02
       5.76397845305e-02  5.83491762843e-02  5.90703481923e-02  5.98036359845e-02
       6.05493883598e-02  6.13079676134e-02  6.20797503018e-02  6.28651279469e-02
       6.36645077828e-02  6.44783135474e-02  6.53069863229e-02  6.61509854281e-02
       6.70107893669e-02  6.78868968360e-02  6.87798277976e-02  6.96901246213e-02
       7.06183532999e-02  7.15651047463e-02  7.25309961761e-02  7.35166725840e-02
       7.45228083204e-02  7.55501087773e-02  7.65993121914e-02  7.76711915748e-02
       7.87665567834e-02  7.98862567351e-02  8.10311817903e-02  8.22022663084e-02
       8.34004913967e-02  8.46268878675e-02  8.58825394232e-02  8.71685860891e-02
       8.84862279179e-02  8.98367289899e-02  9.12214217379e-02  9.26417116279e-02
       9.40990822294e-02  9.55951007141e-02  9.71314238267e-02  9.87098043742e-02
       1.00332098288e-01  1.02000272319e-01  1.03716412432e-01  1.05482732973e-01
       1.07301586698e-01  1.09175475763e-01  1.11107063760e-01  1.13099188958e-01
       1.15154878853e-01  1.17277366205e-01  1.19470106734e-01  1.21736798670e-01
       1.24081404414e-01  1.26508174543e-01  1.29021674500e-01  1.31626814292e-01
       1.34328881621e-01  1.37133578915e-01  1.40047064795e-01  1.43076000627e-01
       1.46227602890e-01  1.49509702229e-01  1.52930810211e-01  1.56500194981e-01
       1.60227967241e-01  1.64125178212e-01  1.68203931607e-01  1.72477511980e-01
       1.76960532329e-01  1.81669104410e-01  1.86621035940e-01  1.91836059782e-01
       1.97336101321e-01  2.03145591685e-01  2.09291836235e-01  2.15805450050e-01
       2.22720875073e-01  2.30076997349e-01  2.37917887698e-01  2.46293695651e-01
       2.55261734930e-01  2.64887810143e-01  2.75247849657e-01  2.86429930338e-01
       2.98536808495e-01  3.11689111057e-01  3.26029397081e-01  3.41727379682e-01
       3.58986714553e-01  3.78053932212e-01  3.99230347686e-01  4.22888173580e-01
       4.49492675599e-01  4.79633190252e-01  5.14067435763e-01  5.53786274450e-01
       6.00110855785e-01  6.54842747474e-01  7.20504143675e-01  8.00738214302e-01
       9.01009712949e-01  1.02990611082e+00  1.20173985634e+00  1.44227336796e+00
       1.80303143236e+00  2.40423865599e+00  3.60656595712e+00  7.21335303926e+00
    </PP_RAB>
  </PP_MESH>
  <PP_LOCAL type="real" size="400" columns="4">
    -2.31447111415e+01 -2.31447111415e+01 -2.31447111415e+01 -2.31447111415e+01
    -2.31447111415e+01 -2.31447111415e+01 -2.31447111415e+01 -2.31447111415e+01
    -2.31447111415e+01 -2.31447111415e+01 -2.31447111414e+01 -2.31447111413e+01
    -2.31447111411e+01 -2.31447111407e+01 -2.31447111399e+01 -2.31447111384e+01
    -2.31447111358e+01 -2.31447111315e+01 -2.31447111244e+01 -2.31447111130e+01
    -2.31447110952e+01 -2.31447110679e+01 -2.31447110271e+01 -2.31447109668e+01
    -2.31447108795e+01 -2.31447107549e+01 -2.31447105794e+01 -2.31447103354e+01
    -2.31447100004e+01 -2.31447095453e+01 -2.31447089338e+01 -2.31447081199e+01
    -2.31447070467e+01 -2.31447056437e+01 -2.31447038243e+01 -2.31447014832e+01
    -2.31446984925e+01 -2.31446946982e+01 -2.31446899157e+01 -2.31446839247e+01
    -2.31446764643e+01 -2.31446672259e+01 -2.31446558468e+01 -2.31446419025e+01
    -2.31446248980e+01 -2.31446042583e+01 -2.31445793182e+01 -2.31445493107e+01
    -2.31445133543e+01 -2.31444704397e+01 -2.31444194145e+01 -2.31443589673e+01
    -2.31442876095e+01 -2.31442036569e+01 -2.31441052088e+01 -2.31439901257e+01
    -2.31438560055e+01 -2.31437001582e+01 -2.31435195781e+01 -2.31433109148e+01
    -2.31430704417e+01 -2.31427940230e+01 -2.31424770782e+01 -2.31421145444e+01
    -2.31417008373e+01 -2.31412298080e+01 -2.31406947000e+01 -2.31400881014e+01
    -2.31394018962e+01 -2.31386272127e+01 -2.31377543692e+01 -2.31367728173e+01
    -2.31356710826e+01 -2.31344367028e+01 -2.31330561628e+01 -2.31315148283e+01
    -2.31297968753e+01 -2.31278852178e+01 -2.31257614330e+01 -2.31234056836e+01
    -2.31207966375e+01 -2.31179113856e+01 -2.31147253565e+01 -2.31112122295e+01
    -2.31073438449e+01 -2.31030901125e+01 -2.30984189184e+01 -2.30932960294e+01
    -2.30876849965e+01 -2.30815470564e+01 -2.30748410326e+01 -2.30675232349e+01
    -2.30595473590e+01 -2.30508643850e+01 -2.30414224774e+01 -2.30311668844e+01
    -2.30200398386e+01 -2.30079804597e+01 -2.29949246584e+01 -2.29808050436e+01
    -2.29655508326e+01 -2.29490877649e+01 -2.29313380219e+01 -2.29122201502e+01
    -2.28916489933e+01 -2.28695356293e+01 -2.28457873174e+01 -2.28203074536e+01
    -2.27929955373e+01 -2.27637471495e+01 -2.27324539437e+01 -2.26990036516e+01
    -2.26632801046e+01 -2.26251632725e+01 -2.25845293210e+01 -2.25412506900e+01
    -2.24951961940e+01 -2.24462311464e+01 -2.23942175098e+01 -2.23390140734e+01
    -2.22804766605e+01 -2.22184583672e+01 -2.21528098339e+01 -2.20833795527e+01
    -2.20100142110e+01 -2.19325590748e+01 -2.18508584115e+01 -2.17647559556e+01
    -2.16740954177e+01 -2.15787210388e+01 -2.14784781904e+01 -2.13732140214e+01
    -2.12627781536e+01 -2.11470234242e+01 -2.10258066767e+01 -2.08989895995e+01
    -2.07664396106e+01 -2.06280307883e+01 -2.04836448440e+01 -2.03331721370e+01
    -2.01765127253e+01 -2.00135774514e+01 -1.98442890555e+01 -1.96685833123e+01
    -1.94864101853e+01 -1.92977349897e+01 -1.91025395573e+01 -1.89008233932e+01
    -1.86926048155e+01 -1.84779220653e+01 -1.82568343773e+01 -1.80294229957e+01
    -1.77957921247e+01 -1.75560697968e+01 -1.73104086455e+01 -1.70589865661e+01
    -1.68020072503e+01 -1.65397005758e+01 -1.62723228382e+01 -1.60001568069e+01
    -1.57235115912e+01 -1.54427223014e+01 -1.51581494915e+01 -1.48701783721e+01
    -1.45792177821e+01 -1.42856989120e+01 -1.39900737720e+01 -1.36928134029e+01
    -1.33944058287e+01 -1.30953537556e+01 -1.27961720236e+01 -1.24973848230e+01
    -1.21995226905e+01 -1.19031193054e+01 -1.16087081098e+01 -1.13168187825e+01
    -1.10279735989e+01 -1.07426837149e+01 -1.04614454158e+01 -1.01847363762e+01
    -9.91301197631e+00 -9.64670172719e+00 -9.38620585492e+00 -9.13189209628e+00
    -8.88409275784e+00 -8.64310208873e+00 -8.40917401498e+00 -8.18252027956e+00
    -7.96330902745e+00 -7.75166386911e+00 -7.54766344851e+00 -7.35134153385e+00
    -7.16268764044e+00 -6.98164818511e+00 -6.80812816194e+00 -6.64199331847e+00
    -6.48307280140e+00 -6.33116223070e+00 -6.18602715176e+00 -6.04740680658e+00
    -5.91501815775e+00 -5.78856009305e+00 -5.66771773428e+00 -5.55216677136e+00
    -5.44157774289e+00 -5.33562018517e+00 -5.23396657641e+00 -5.13629600771e+00
    -5.04229752060e+00 -4.95167305981e+00 -4.86414000068e+00 -4.77943322217e+00
    -4.69730670866e+00 -4.61753467621e+00 -4.53991223122e+00 -4.46425558110e+00
    -4.39040182704e+00 -4.31820837850e+00 -4.24755203640e+00 -4.17832779782e+00
    -4.11044743872e+00 -4.04383793283e+00 -3.97843976440e+00 -3.91420519025e+00
    -3.85109650253e+00 -3.78908433814e+00 -3.72814607429e+00 -3.66826434206e+00
    -3.60942568260e+00 -3.55161936226e+00 -3.49483635582e+00 -3.43906849999e+00
    -3.38430781309e+00 -3.33054597184e+00 -3.27777393209e+00 -3.22598167728e+00
    -3.17515807689e+00 -3.12529083601e+00 -3.07636651757e+00 -3.02837061952e+00
    -2.98128769084e+00 -2.93510147209e+00 -2.88979504844e+00 -2.84535100541e+00
    -2.80175157968e+00 -2.75897879950e+00 -2.71701461111e+00 -2.67584098905e+00
    -2.63544002971e+00 -2.59579402834e+00 -2.55688554049e+00 -2.51869742942e+00
    -2.48121290107e+00 -2.44441552865e+00 -2.40828926837e+00 -2.37281846823e+00
    -2.33798787122e+00 -2.30378261425e+00 -2.27018822403e+00 -2.23719061056e+00
    -2.20477605917e+00 -2.17293122144e+00 -2.14164310558e+00 -2.11089906649e+00
    -2.08068679570e+00 -2.05099431136e+00 -2.02180994843e+00 -1.99312234903e+00
    -1.96492045306e+00 -1.93719348912e+00 -1.90993096565e+00 -1.88312266243e+00
    -1.85675862233e+00 -1.83082914327e+00 -1.80532477056e+00 -1.78023628939e+00
    -1.75555471769e+00 -1.73127129907e+00 -1.70737749612e+00 -1.68386498391e+00
    -1.66072564364e+00 -1.63795155656e+00 -1.61553499807e+00 -1.59346843197e+00
    -1.57174450499e+00 -1.55035604138e+00 -1.52929603775e+00 -1.50855765807e+00
    -1.48813422873e+00 -1.46801923393e+00 -1.44820631102e+00 -1.42868924615e+00
    -1.40946196990e+00 -1.39051855321e+00 -1.37185320326e+00 -1.35346025959e+00
    -1.33533419031e+00 -1.31746958839e+00 -1.29986116808e+00 -1.28250376146e+00
    -1.26539231502e+00 -1.24852188641e+00 -1.23188764120e+00 -1.21548484984e+00
    -1.19930888459e+00 -1.18335521660e+00 -1.16761941305e+00 -1.15209713434e+00
    -1.13678413142e+00 -1.12167624307e+00 -1.10676939340e+00 -1.09205958925e+00
    -1.07754291780e+00 -1.06321554408e+00 -1.04907370870e+00 -1.03511372549e+00
    -1.02133197927e+00 -1.00772492364e+00 -9.94289078768e-01 -9.81021029325e-01
    -9.67917422344e-01 -9.54974965171e-01 -9.42190423433e-01 -9.29560619035e-01
    -9.17082428175e-01 -9.04752779387e-01 -8.92568651598e-01 -8.80527072201e-01
    -8.68625115133e-01 -8.56859898970e-01 -8.45228585016e-01 -8.33728375396e-01
    -8.22356511140e-01 -8.11110270262e-01 -7.99986965820e-01 -7.88983943960e-01
    -7.78098581924e-01 -7.67328286043e-01 -7.56670489676e-01 -7.46122651112e-01
    -7.35682251413e-01 -7.25346792199e-01 -7.15113793358e-01 -7.04980790675e-01
    -6.94945333367e-01 -6.85004981507e-01 -6.75157303336e-01 -6.65399872421e-01
    -6.55730264678e-01 -6.46146055200e-01 -6.36644814899e-01 -6.27224106913e-01
    -6.17881482772e-01 -6.08614478260e-01 -5.99420608967e-01 -5.90297365461e-01
    -5.81242208050e-01 -5.72252561055e-01 -5.63325806556e-01 -5.54459277504e-01
    -5.45650250131e-01 -5.36895935544e-01 -5.28193470378e-01 -5.19539906376e-01
    -5.10932198702e-01 -5.02367192814e-01 -4.93841609622e-01 -4.85352028677e-01
    -4.76894869003e-01 -4.68466367175e-01 -4.60062552122e-01 -4.51679216011e-01
    -4.43311880441e-01 -4.34955756973e-01 -4.26605700779e-01 -4.18256155886e-01
    -4.09901090054e-01 -4.01533916798e-01 -3.93147401299e-01 -3.84733545975e-01
    -3.76283450063e-01 -3.67787135679e-01 -3.59233330084e-01 -3.50609189978e-01
    -3.41899947925e-01 -3.33088452484e-01 -3.24154560538e-01 -3.15074319861e-01
    -3.05818847024e-01 -2.96352750720e-01 -2.86631855765e-01 -2.76599811409e-01
    -2.66182841996e-01 -2.55281239342e-01 -2.43754762213e-01 -2.31395673150e-01
    -2.17873840852e-01 -2.02608481838e-01 -1.84397706335e-01 -1.59837039490e-01
  </PP_LOCAL>
  <PP_NONLOCAL>
    <PP_BETA.1 type="real" size="400" columns="4" index="1" angular_momentum="0" cutoff_radius_index="400">
       9.59841019197e-11  3.07113820644e-09  2.33180454945e-08  9.82419463529e-08
       2.99731775264e-07  7.45588831439e-07  1.61089908154e-06  3.13933512390e-06
       5.65437391359e-06  9.57041642542e-06  1.54037956921e-05  2.37836595594e-05
       3.54627149216e-05  5.13278201893e-05  7.24104130291e-05  9.98967606443e-05
       1.35138020144e-04  1.79660096691e-04  2.35173287584e-04  3.03581700637e-04
       3.86992435570e-04  4.87724517550e-04  6.08317572254e-04  7.51540232471e-04
       9.20398266375e-04  1.11814241830e-03  1.34827595317e-03  1.61456189617e-03
       1.92102995987e-03  2.27198315139e-03  2.67200405264e-03  3.12596076731e-03
       3.63901252881e-03  4.21661496356e-03  4.86452500494e-03  5.58880545333e-03
       6.39582917842e-03  7.29228296023e-03  8.28517096570e-03  9.38181785819e-03
       1.05898715376e-02  1.19173055086e-02  1.33724208762e-02  1.49638479652e-02
       1.67005475636e-02  1.85918117877e-02  2.06472645671e-02  2.28768617477e-02
       2.52908908106e-02  2.78999702050e-02  3.07150482900e-02  3.37474018840e-02
       3.70086344140e-02  4.05106736616e-02  4.42657690960e-02  4.82864887876e-02
       5.25857158904e-02  5.71766446812e-02  6.20727761421e-02  6.72879130677e-02
       7.28361546799e-02  7.87318907252e-02  8.49897950316e-02  9.16248184928e-02
       9.86521814497e-02  1.06087365429e-01  1.13946104202e-01  1.22244374104e-01
       1.30998383587e-01  1.40224561921e-01  1.49939546995e-01  1.60160172154e-01
       1.70903451979e-01  1.82186566942e-01  1.94026846839e-01  2.06441752909e-01
       2.19448858523e-01  2.33065828344e-01  2.47310395826e-01  2.62200338928e-01
       2.77753453897e-01  2.93987526984e-01  3.10920303929e-01  3.28569457046e-01
       3.46952549748e-01  3.66086998318e-01  3.85990030739e-01  4.06678642381e-01
       4.28169548354e-01  4.50479132282e-01  4.73623391320e-01  4.97617877150e-01
       5.22477632751e-01  5.48217124707e-01  5.74850170802e-01  6.02389862696e-01
       6.30848483425e-01  6.60237419505e-01  6.90567067424e-01  7.21846734304e-01
       7.54084532529e-01  7.87287268166e-01  8.21460323005e-01  8.56607530083e-01
       8.92731042576e-01  9.29831195996e-01  9.67906363629e-01  1.00695280525e+00
       1.04696450916e+00  1.08793302767e+00  1.12984730619e+00  1.17269350625e+00
       1.21645482274e+00  1.26111129578e+00  1.30663961786e+00  1.35301293682e+00
       1.40020065537e+00  1.44816822829e+00  1.49687695801e+00  1.54628379011e+00
       1.59634110978e+00  1.64699654101e+00  1.69819275005e+00  1.74986725506e+00
       1.80195224414e+00  1.85437440387e+00  1.90705476087e+00  1.95990853927e+00
       2.01284503667e+00  2.06576752194e+00  2.11857315811e+00  2.17115295371e+00
       2.22339174643e+00  2.27516822275e+00  2.32635497751e+00  2.37681861761e+00
       2.42641991372e+00  2.47501400438e+00  2.52245065639e+00  2.56857458574e+00
       2.61322584278e+00  2.65624026537e+00  2.69745000348e+00  2.73668411806e+00
       2.77376925687e+00  2.80853040910e+00  2.84079174012e+00  2.87037750681e+00
       2.89711305294e+00  2.92082588336e+00  2.94134681421e+00  2.95851119532e+00
       2.97216019976e+00  2.98214217371e+00  2.98831403851e+00  2.99054273509e+00
       2.98870669929e+00  2.98269735497e+00  2.97242060988e+00  2.95779833801e+00
       2.93876983022e+00  2.91529319357e+00  2.88734667857e+00  2.85492991237e+00
       2.81806501509e+00  2.77679757585e+00  2.73119746520e+00  2.68135946038e+00
       2.62740366102e+00  2.56947567375e+00  2.50774654599e+00  2.44241243146e+00
       2.37369397295e+00  2.30183539087e+00  2.22710327063e+00  2.14978504600e+00
       2.07018718077e+00  1.98863305634e+00  1.90546057877e+00  1.82101952451e+00
       1.73566865031e+00  1.64977259873e+00  1.56369863627e+00  1.47781326693e+00
       1.39247876845e+00  1.30804970286e+00  1.22486945609e+00  1.14326686353e+00
       1.06355297942e+00  9.86018047431e-01  9.10928728238e-01  8.38525636336e-01
       7.69021233852e-01  7.02598122878e-01  6.39407770402e-01  5.79569691347e-01
       5.23171105609e-01  4.70267074708e-01  4.20881112957e-01  3.75006257196e-01