<UPF version="2.0.1">
  <PP_INFO>
Converted from CP2K GTH format
       <PP_INPUTFILE>
C 
    2    2    0    0
    0.33847124000000       2   -8.80367398000000    1.33921085000000
       1
    0.30257575000000       1    9.62248665000000
       </PP_INPUTFILE>
  </PP_INFO>
  <PP_HEADER
    generated="Generated in analytical, separable form"
    author="Goedecker/Hartwigsen/Hutter/Teter"
    date="Phys.Rev.B58, 3641 (1998); B54, 1703 (1996)"
    comment="This file generated by CP2K ATOM code"
    element="C"
    pseudo_type="NC"
    relativistic="scalar"
    is_ultrasoft="F"
    is_paw="F"
    is_coulomb="F"
    has_so="F"
    has_wfc="T"
    has_gipaw="F"
    paw_as_gipaw="F"
    core_correction="F"
    functional="PBE"
    z_valence="4.0000000000"
    total_psenergy="-10.7183770000"
    wfc_cutoff="0.0000000000"
    rho_cutoff="0.0000000000"
    l_max="1"
    l_max_rho="0"
    l_local="-3"
    mesh_size="400"
    number_of_wfc="2"
    number_of_proj="1"/>
  <PP_MESH dx="1.0000000000000000e+00" mesh="400" xmin="1.0000000000000000e+00" rmax="3.7538232999999998e+01" zmesh="6.0000000000000000e+00">
    <PP_R type="real" size="400" columns="4">
       7.22853190584e-12  2.31286432529e-10  1.75607452138e-09  7.39856944537e-09
       2.25727037849e-08  5.61500555707e-08  1.21316292751e-07  2.36422320493e-07
       4.25829084447e-07  7.20744989012e-07  1.16005490915e-06  1.79113976717e-06
       2.67068567771e-06  3.86548166306e-06  5.45320496294e-06  7.52319298002e-06
       1.01772009232e-05  1.35301442221e-05  1.77108248203e-05  2.28626404723e-05
       2.91442761927e-05  3.67303770427e-05  4.58122014526e-05  5.65982543296e-05
       6.93148992117e-05  8.42069487776e-05  1.01538233049e-04  1.21592144665e-04
       1.44672160631e-04  1.71102340018e-04  2.01227797072e-04  2.35415149303e-04
       2.74052940106e-04  3.17552035547e-04  3.66345994967e-04  4.20891415136e-04
       4.81668247687e-04  5.49180089643e-04  6.23954446896e-04  7.06542970501e-04
       7.97521665771e-04  8.97491074118e-04  1.00707642770e-03  1.12692777695e-03
       1.25772009112e-03  1.40015333198e-03  1.55495250098e-03  1.72286765998e-03
       1.90467392601e-03  2.10117144037e-03  2.31318531236e-03  2.54156553820e-03
       2.78718689553e-03  3.05094881400e-03  3.33377522260e-03  3.63661437407e-03
       3.96043864728e-03  4.30624432799e-03  4.67505136882e-03  5.06790312903e-03
       5.48586609482e-03  5.93002958103e-03  6.40150541486e-03  6.90142760243e-03
       7.43095197903e-03  7.99125584389e-03  8.58353758021e-03  9.20901626139e-03
       9.86893124424e-03  1.05645417501e-02  1.12971264349e-02  1.20679829481e-02
       1.28784274833e-02  1.37297943191e-02  1.46234353530e-02  1.55607196278e-02
       1.65430328521e-02  1.75717769162e-02  1.86483694024e-02  1.97742430934e-02
       2.09508454764e-02  2.21796382464e-02  2.34620968078e-02  2.47997097761e-02
       2.61939784799e-02  2.76464164637e-02  2.91585489930e-02  3.07319125619e-02
       3.23680544040e-02  3.40685320070e-02  3.58349126321e-02  3.76687728386e-02
       3.95716980139e-02  4.15452819102e-02  4.35911261879e-02  4.57108399664e-02
       4.79060393828e-02  5.01783471587e-02  5.25293921763e-02  5.49608090629e-02
       5.74742377858e-02  6.00713232566e-02  6.27537149461e-02  6.55230665091e-02
       6.83810354214e-02  7.13292826268e-02  7.43694721957e-02  7.75032709962e-02
       8.07323483757e-02  8.40583758557e-02  8.74830268379e-02  9.10079763235e-02
       9.46349006441e-02  9.83654772053e-02  1.02201384244e-01  1.06144300596e-01
       1.10195905480e-01  1.14357878290e-01  1.18631898405e-01  1.23019645005e-01
       1.27522796911e-01  1.32143032424e-01  1.36882029186e-01  1.41741464052e-01
       1.46723012974e-01  1.51828350893e-01  1.57059151655e-01  1.62417087924e-01
       1.67903831121e-01  1.73521051369e-01  1.79270417446e-01  1.85153596759e-01
       1.91172255326e-01  1.97328057764e-01  2.03622667296e-01  2.10057745770e-01
       2.16634953680e-01  2.23355950208e-01  2.30222393274e-01  2.37235939592e-01
       2.44398244747e-01  2.51710963269e-01  2.59175748728e-01  2.66794253839e-01
       2.74568130569e-01  2.82499030260e-01  2.90588603761e-01  2.98838501574e-01
       3.07250373996e-01  3.15825871286e-01  3.24566643833e-01  3.33474342335e-01
       3.42550617983e-01  3.51797122663e-01  3.61215509160e-01  3.70807431370e-01
       3.80574544524e-01  3.90518505419e-01  4.00640972657e-01  4.10943606896e-01
       4.21428071099e-01  4.32096030808e-01  4.42949154406e-01  4.53989113405e-01
       4.65217582730e-01  4.76636241017e-01  4.88246770917e-01  5.00050859406e-01
       5.12050198107e-01  5.24246483615e-01  5.36641417835e-01  5.49236708323e-01
       5.62034068637e-01  5.75035218695e-01  5.88241885146e-01  6.01655801736e-01
       6.15278709697e-01  6.29112358134e-01  6.43158504427e-01  6.57418914630e-01
       6.71895363892e-01  6.86589636877e-01  7.01503528194e-01  7.16638842840e-01
       7.31997396644e-01  7.47581016724e-01  7.63391541957e-01  7.79430823446e-01
       7.95700725012e-01  8.12203123679e-01  8.28939910182e-01  8.45912989478e-01
       8.63124281265e-01  8.80575720517e-01  8.98269258026e-01  9.16206860955e-01
       9.34390513401e-01  9.52822216969e-01  9.71503991362e-01  9.90437874975e-01
       1.00962592551e+00  1.02907022059e+00  1.04877285840e+00  1.06873595834e+00
       1.08896166167e+00  1.10945213221e+00  1.13020955700e+00  1.15123614703e+00
       1.17253413794e+00  1.19410579078e+00  1.21595339271e+00  1.23807925785e+00
       1.26048572797e+00  1.28317517335e+00  1.30614999360e+00  1.32941261848e+00
       1.35296550876e+00  1.37681115710e+00  1.40095208896e+00  1.42539086350e+00
       1.45013007454e+00  1.47517235154e+00  1.50052036053e+00  1.52617680519e+00
       1.55214442785e+00  1.57842601057e+00  1.60502437624e+00  1.63194238966e+00
       1.65918295875e+00  1.68674903569e+00  1.71464361814e+00  1.74286975047e+00
       1.77143052508e+00  1.80032908367e+00  1.82956861859e+00  1.85915237427e+00
       1.88908364858e+00  1.91936579436e+00  1.95000222087e+00  1.98099639540e+00
       2.01235184480e+00  2.04407215718e+00  2.07616098357e+00  2.10862203968e+00
       2.14145910766e+00  2.17467603802e+00  2.20827675146e+00  2.24226524089e+00
       2.27664557341e+00  2.31142189244e+00  2.34659841990e+00  2.38217945835e+00
       2.41816939337e+00  2.45457269592e+00  2.49139392475e+00  2.52863772900e+00
       2.56630885075e+00  2.60441212779e+00  2.64295249638e+00  2.68193499418e+00
       2.72136476318e+00  2.76124705291e+00  2.80158722354e+00  2.84239074930e+00
       2.88366322184e+00  2.92541035387e+00  2.96763798281e+00  3.01035207467e+00
       3.05355872799e+00  3.09726417797e+00  3.14147480079e+00  3.18619711802e+00
       3.23143780123e+00  3.27720367684e+00  3.32350173102e+00  3.37033911495e+00
       3.41772315014e+00  3.46566133409e+00  3.51416134605e+00  3.56323105315e+00
       3.61287851667e+00  3.66311199862e+00  3.71393996861e+00  3.76537111099e+00
       3.81741433227e+00  3.87007876892e+00  3.92337379544e+00  3.97730903285e+00
       4.03189435749e+00  4.08713991025e+00  4.14305610626e+00  4.19965364490e+00
       4.25694352037e+00  4.31493703276e+00  4.37364579952e+00  4.43308176763e+00
       4.49325722620e+00  4.55418481982e+00  4.61587756241e+00  4.67834885190e+00
       4.74161248552e+00  4.80568267591e+00  4.87057406808e+00  4.93630175712e+00
       5.00288130699e+00  5.07032877013e+00  5.13866070824e+00  5.20789421408e+00
       5.27804693449e+00  5.34913709465e+00  5.42118352367e+00  5.49420568167e+00
       5.56822368827e+00  5.64325835285e+00  5.71933120643e+00  5.79646453548e+00
       5.87468141775e+00  5.95400576017e+00  6.03446233910e+00  6.11607684305e+00
       6.19887591802e+00  6.28288721572e+00  6.36813944483e+00  6.45466242560e+00
       6.54248714801e+00  6.63164583376e+00  6.72217200241e+00  6.81410054208e+00
       6.90746778497e+00  7.00231158817e+00  7.09867142021e+00  7.19658845383e+00
       7.29610566552e+00  7.39726794245e+00  7.50012219742e+00  7.60471749259e+00
       7.71110517277e+00  7.81933900930e+00  7.92947535534e+00  8.04157331379e+00
       8.15569491921e+00  8.27190533484e+00  8.39027306665e+00  8.51087019584e+00
       8.63377263206e+00  8.75906038931e+00  8.88681788726e+00  9.01713428073e+00
       9.15010382043e+00  9.28582624889e+00  9.42440723554e+00  9.56595885564e+00
       9.71060011879e+00  9.85845755290e+00  1.00096658511e+01  1.01643685896e+01
       1.03227190264e+01  1.04848809919e+01  1.06510298839e+01  1.08213537828e+01
       1.09960547046e+01  1.11753500125e+01  1.13594740119e+01  1.15486797575e+01
       1.17432411096e+01  1.19434550779e+01  1.21496445077e+01  1.23621611644e+01
       1.25813892956e+01  1.28077497563e+01  1.30417048124e+01  1.32837637582e+01
       1.35344895202e+01  1.37945064614e+01  1.40645096609e+01  1.43452760122e+01
       1.46376775900e+01  1.49426978619e+01  1.52614515069e+01  1.55952088472e+01
       1.59454262445e+01  1.63137843006e+01  1.67022363949e+01  1.71130711103e+01
       1.75489936059e+01  1.80132332876e+01  1.85096886807e+01  1.90431260874e+01
       1.96194579189e+01  2.02461424280e+01  2.09327744956e+01  2.16919887596e+01
       2.25408969076e+01  2.35034897804e+01  2.46149037070e+01  2.59296118995e+01
       2.75388728474e+01  2.96137651572e+01  3.25383656839e+01  3.75382328098e+01
    </PP_R>
    <PP_RAB type="real" size="400" columns="4">
       3.61412465855e-11  5.78188964494e-10  2.92648282218e-09  9.24648195069e-09
       2.25661064928e-08  4.67720198933e-08  8.66048561826e-08  1.47653397850e-07
       2.36347711306e-07  3.59951248387e-07  5.26551923849e-07  7.45052180357e-07
       1.02515805405e-06  1.37736725537e-06  1.81295628150e-06  2.34396657848e-06
       2.98318977251e-06  3.74415199212e-06  4.64109730401e-06  5.68897028740e-06
       6.90339777347e-06  8.30066977780e-06  9.89771965563e-06  1.17121035113e-05
       1.37619788945e-05  1.60660828183e-05  1.86437091343e-05  2.15146853016e-05
       2.46993485900e-05  2.82185217549e-05  3.20934882265e-05  3.63459668547e-05
       4.09980862524e-05  4.60723587821e-05  5.15916542287e-05  5.75791732062e-05
       6.40584203412e-05  7.10531772822e-05  7.85874755801e-05  8.66855694856e-05
       9.53719087129e-05  1.04671111214e-04  1.14607936011e-04  1.25207256136e-04
       1.36494031713e-04  1.48493283248e-04  1.61230065148e-04  1.74729439530e-04
       1.89016450357e-04  2.04116097938e-04  2.20053313843e-04  2.36852936265e-04
       2.54539685870e-04  2.73138142168e-04  2.92672720446e-04  3.13167649293e-04
       3.34646948751e-04  3.57134409115e-04  3.80653570425e-04  4.05227702659e-04
       4.30879786667e-04  4.57632495857e-04  4.85508178657e-04  5.14528841780e-04
       5.44716134295e-04  5.76091332528e-04  6.08675325798e-04  6.42488603009e-04
       6.77551240098e-04  7.13882888342e-04  7.51502763545e-04  7.90429636085e-04
       8.30681821840e-04  8.72277173981e-04  9.15233075636e-04  9.59566433411e-04
       1.00529367177e-03  1.05243072828e-03  1.10099304962e-03  1.15099558855e-03
       1.20245280156e-03  1.25537864739e-03  1.30978658629e-03  1.36568958013e-03
       1.42310009316e-03  1.48203009352e-03  1.54249105553e-03  1.60449396261e-03
       1.66804931085e-03  1.73316711327e-03  1.79985690471e-03  1.86812774726e-03
       1.93798823631e-03  2.00944650717e-03  2.08251024216e-03  2.15718667826e-03
       2.23348261517e-03  2.31140442393e-03  2.39095805584e-03  2.47214905185e-03
       2.55498255237e-03  2.63946330735e-03  2.72559568672e-03  2.81338369116e-03
       2.90283096313e-03  2.99394079816e-03  3.08671615638e-03  3.18115967427e-03
       3.27727367655e-03  3.37506018837e-03  3.47452094746e-03  3.57565741662e-03
       3.67847079612e-03  3.78296203635e-03  3.88913185047e-03  3.99698072711e-03
       4.10650894313e-03  4.21771657643e-03  4.33060351870e-03  4.44516948823e-03
       4.56141404268e-03  4.67933659180e-03  4.79893641013e-03  4.92021264962e-03
       5.04316435224e-03  5.16779046239e-03  5.29408983939e-03  5.42206126976e-03
       5.55170347939e-03  5.68301514572e-03  5.81599490964e-03  5.95064138743e-03
       6.08695318243e-03  6.22492889668e-03  6.36456714239e-03  6.50586655324e-03
       6.64882579562e-03  6.79344357961e-03  6.93971866996e-03  7.08764989676e-03
       7.23723616609e-03  7.38847647051e-03  7.54136989931e-03  7.69591564869e-03
       7.85211303184e-03  8.00996148875e-03  8.16946059599e-03  8.33061007627e-03
       8.49340980796e-03  8.65785983438e-03  8.82396037303e-03  8.99171182463e-03
       9.16111478213e-03  9.33217003952e-03  9.50487860054e-03  9.67924168738e-03
       9.85526074909e-03  1.00329374701e-02  1.02122737786e-02  1.03932718546e-02
       1.05759341383e-02  1.07602633380e-02  1.09462624384e-02  1.11339347085e-02
       1.13232837093e-02  1.15143133018e-02  1.17070276553e-02  1.19014312544e-02
       1.20975289074e-02  1.22953257540e-02  1.24948272730e-02  1.26960392898e-02
       1.28989679849e-02  1.31036199010e-02  1.33100019513e-02  1.35181214271e-02
       1.37279860059e-02  1.39396037594e-02  1.41529831613e-02  1.43681330957e-02
       1.45850628651e-02  1.48037821990e-02  1.50243012616e-02  1.52466306612e-02
       1.54707814582e-02  1.56967651740e-02  1.59245938001e-02  1.61542798069e-02
       1.63858361531e-02  1.66192762949e-02  1.68546141958e-02  1.70918643364e-02
       1.73310417239e-02  1.75721619032e-02  1.78152409666e-02  1.80602955647e-02
       1.83073429176e-02  1.85564008260e-02  1.88074876825e-02  1.90606224840e-02
       1.93158248431e-02  1.95731150013e-02  1.98325138416e-02  2.00940429014e-02
       2.03577243866e-02  2.06235811853e-02  2.08916368820e-02  2.11619157732e-02
       2.14344428818e-02  2.17092439735e-02  2.19863455727e-02  2.22657749796e-02
       2.25475602874e-02  2.28317304000e-02  2.31183150508e-02  2.34073448215e-02
       2.36988511620e-02  2.39928664106e-02  2.42894238152e-02  2.45885575550e-02
       2.48903027631e-02  2.51946955496e-02  2.55017730261e-02  2.58115733300e-02
       2.61241356509e-02  2.64395002570e-02  2.67577085230e-02  2.70788029585e-02
       2.74028272380e-02  2.77298262314e-02  2.80598460359e-02  2.83929340093e-02
       2.87291388041e-02  2.90685104029e-02  2.94111001556e-02  2.97569608172e-02
       3.01061465878e-02  3.04587131537e-02  3.08147177300e-02  3.11742191050e-02
       3.15372776865e-02  3.19039555494e-02  3.22743164852e-02  3.26484260542e-02
       3.30263516388e-02  3.34081624992e-02  3.37939298318e-02  3.41837268292e-02
       3.45776287430e-02  3.49757129491e-02  3.53780590159e-02  3.57847487745e-02
       3.61958663928e-02  3.66114984521e-02  3.70317340266e-02  3.74566647672e-02
       3.78863849879e-02  3.83209917562e-02  3.87605849875e-02  3.92052675434e-02
       3.96551453346e-02  4.01103274272e-02  4.05709261555e-02  4.10370572379e-02
       4.15088398991e-02  4.19863969978e-02  4.24698551591e-02  4.29593449144e-02
       4.34550008465e-02  4.39569617420e-02  4.44653707506e-02  4.49803755518e-02
       4.55021285297e-02  4.60307869559e-02  4.65665131809e-02  4.71094748354e-02
       4.76598450408e-02  4.82178026302e-02  4.87835323804e-02  4.93572252552e-02
       4.99390786613e-02  5.05292967168e-02  5.11280905335e-02  5.17356785135e-02
       5.23522866620e-02  5.29781489152e-02  5.36135074867e-02  5.42586132312e-02
       5.49137260290e-02  5.55791151901e-02  5.62550598814e-02  5.69418495762e-02
       5.76397845305e-02  5.83491762843e-02  5.90703481923e-02  5.98036359845e-02
       6.05493883598e-02  6.13079676134e-02  6.20797503018e-02  6.28651279469e-02
       6.36645077828e-02  6.44783135474e-02  6.53069863229e-02  6.61509854281e-02
       6.70107893669e-02  6.78868968360e-02  6.87798277976e-02  6.96901246213e-02
       7.06183532999e-02  7.15651047463e-02  7.25309961761e-02  7.35166725840e-02
       7.45228083204e-02  7.55501087773e-02  7.65993121914e-02  7.76711915748e-02
       7.87665567834e-02  7.98862567351e-02  8.10311817903e-02  8.22022663084e-02
       8.34004913967e-02  8.46268878675e-02  8.58825394232e-02  8.71685860891e-02
       8.84862279179e-02  8.98367289899e-02  9.12214217379e-02  9.26417116279e-02
       9.40990822294e-02  9.55951007141e-02  9.71314238267e-02  9.87098043742e-02
       1.00332098288e-01  1.02000272319e-01  1.03716412432e-01  1.05482732973e-01
       1.07301586698e-01  1.09175475763e-01  1.11107063760e-01  1.13099188958e-01
       1.15154878853e-01  1.17277366205e-01  1.19470106734e-01  1.21736798670e-01
       1.24081404414e-01  1.26508174543e-01  1.29021674500e-01  1.31626814292e-01
       1.34328881621e-01  1.37133578915e-01  1.40047064795e-01  1.43076000627e-01
       1.46227602890e-01  1.49509702229e-01  1.52930810211e-01  1.56500194981e-01
       1.60227967241e-01  1.64125178212e-01  1.68203931607e-01  1.72477511980e-01
       1.76960532329e-01  1.81669104410e-01  1.86621035940e-01  1.91836059782e-01
       1.97336101321e-01  2.03145591685e-01  2.09291836235e-01  2.15805450050e-01
       2.22720875073e-01  2.30076997349e-01  2.37917887698e-01  2.46293695651e-01
       2.55261734930e-01  2.64887810143e-01  2.75247849657e-01  2.86429930338e-01
       2.98536808495e-01  3.11689111057e-01  3.26029397081e-01  3.41727379682e-01
       3.58986714553e-01  3.78053932212e-01  3.99230347686e-01  4.22888173580e-01
       4.49492675599e-01  4.79633190252e-01  5.14067435763e-01  5.53786274450e-01
       6.00110855785e-01  6.54842747474e-01  7.20504143675e-01  8.00738214302e-01
       9.01009712949e-01  1.02990611082e+00  1.20173985634e+00  1.44227336796e+00
       1.80303143236e+00  2.40423865599e+00  3.60656595712e+00  7.21335303926e+00
    </PP_RAB>
  </PP_MESH>
  <PP_LOCAL type="real" size="400" columns="4">
    -3.64658970244e+01 -3.64658970244e+01 -3.64658970244e+01 -3.64658970244e+01
    -3.64658970244e+01 -3.64658970244e+01 -3.64658970244e+01 -3.64658970244e+01
    -3.64658970244e+01 -3.64658970243e+01 -3.64658970242e+01 -3.64658970240e+01
    -3.64658970235e+01 -3.64658970225e+01 -3.64658970206e+01 -3.64658970172e+01
    -3.64658970112e+01 -3.64658970010e+01 -3.64658969843e+01 -3.64658969577e+01
    -3.64658969159e+01 -3.64658968522e+01 -3.64658967565e+01 -3.64658966154e+01
    -3.64658964110e+01 -3.64658961192e+01 -3.64658957082e+01 -3.64658951370e+01
    -3.64658943524e+01 -3.64658932870e+01 -3.64658918551e+01 -3.64658899494e+01
    -3.64658874364e+01 -3.64658841512e+01 -3.64658798911e+01 -3.64658744093e+01
    -3.64658674065e+01 -3.64658585220e+01 -3.64658473236e+01 -3.64658332958e+01
    -3.64658158270e+01 -3.64657941950e+01 -3.64657675506e+01 -3.64657348998e+01
    -3.64656950835e+01 -3.64656467554e+01 -3.64655883578e+01 -3.64655180947e+01
    -3.64654339024e+01 -3.64653334175e+01 -3.64652139419e+01 -3.64650724045e+01
    -3.64649053206e+01 -3.64647087464e+01 -3.64644782316e+01 -3.64642087671e+01
    -3.64638947289e+01 -3.64635298190e+01 -3.64631070004e+01 -3.64626184292e+01
    -3.64620553814e+01 -3.64614081749e+01 -3.64606660871e+01 -3.64598172672e+01
    -3.64588486432e+01 -3.64577458242e+01 -3.64564929965e+01 -3.64550728149e+01
    -3.64534662877e+01 -3.64516526569e+01 -3.64496092716e+01 -3.64473114563e+01
    -3.64447323731e+01 -3.64418428777e+01 -3.64386113703e+01 -3.64350036395e+01
    -3.64309827018e+01 -3.64265086339e+01 -3.64215384005e+01 -3.64160256762e+01
    -3.64099206621e+01 -3.64031698975e+01 -3.63957160670e+01 -3.63874978029e+01
    -3.63784494838e+01 -3.63685010294e+01 -3.63575776926e+01 -3.63455998487e+01
    -3.63324827834e+01 -3.63181364791e+01 -3.63024654014e+01 -3.62853682863e+01
    -3.62667379287e+01 -3.62464609749e+01 -3.62244177179e+01 -3.62004818992e+01
    -3.61745205177e+01 -3.61463936469e+01 -3.61159542629e+01 -3.60830480852e+01
    -3.60475134320e+01 -3.60091810925e+01 -3.59678742188e+01 -3.59234082401e+01
    -3.58755908017e+01 -3.58242217322e+01 -3.57690930421e+01 -3.57099889569e+01
    -3.56466859889e+01 -3.55789530508e+01 -3.55065516159e+01 -3.54292359276e+01
    -3.53467532646e+01 -3.52588442645e+01 -3.51652433105e+01 -3.50656789864e+01
    -3.49598746051e+01 -3.48475488127e+01 -3.47284162761e+01 -3.46021884563e+01
    -3.44685744725e+01 -3.43272820608e+01 -3.41780186323e+01 -3.40204924325e+01
    -3.38544138060e+01 -3.36794965687e+01 -3.34954594885e+01 -3.33020278761e+01
    -3.30989352853e+01 -3.28859253218e+01 -3.26627535579e+01 -3.24291895489e+01
    -3.21850189474e+01 -3.19300457060e+01 -3.16640943624e+01 -3.13870123937e+01
    -3.10986726289e+01 -3.07989757035e+01 -3.04878525394e+01 -3.01652668303e+01
    -2.98312175103e+01 -2.94857411818e+01 -2.91289144746e+01 -2.87608563082e+01
    -2.83817300246e+01 -2.79917453583e+01 -2.75911602087e+01 -2.71802821766e+01
    -2.67594698275e+01 -2.63291336424e+01 -2.58897366179e+01 -2.54417944750e+01
    -2.49858754416e+01 -2.45225995713e+01 -2.40526375659e+01 -2.35767090736e+01
    -2.30955804367e+01 -2.26100618704e+01 -2.21210040605e+01 -2.16292941744e+01
    -2.11358512891e+01 -2.06416212495e+01 -2.01475709793e+01 -1.96546822788e+01
    -1.91639451545e+01 -1.86763507375e+01 -1.81928838593e+01 -1.77145153635e+01
    -1.72421942460e+01 -1.67768397232e+01 -1.63193333376e+01 -1.58705112187e+01
    -1.54311566204e+01 -1.50019928609e+01 -1.45836767905e+01 -1.41767929115e+01
    -1.37818482681e+01 -1.33992682167e+01 -1.30293931746e+01 -1.26724764303e+01
    -1.23286830820e+01 -1.19980901474e+01 -1.16806878691e+01 -1.13763822112e+01
    -1.10849985182e+01 -1.08062862824e+01 -1.05399249369e+01 -1.02855305667e+01
    -1.00426634107e+01 -9.81083600112e+00 -9.58952177561e+00 -9.37816398150e+00
    -9.17618468593e+00 -8.98299370287e+00 -8.79799725162e+00 -8.62060617088e+00
    -8.45024352674e+00 -8.28635147265e+00 -8.12839724367e+00 -7.97587819429e+00
    -7.82832581949e+00 -7.68530872975e+00 -7.54643458230e+00 -7.41135100098e+00
    -7.27974554557e+00 -7.15134481555e+00 -7.02591279429e+00 -6.90324855468e+00
    -6.78318345781e+00 -6.66557798048e+00 -6.55031830674e+00 -6.43731281248e+00
    -6.32648856201e+00 -6.21778792087e+00 -6.11116537289e+00 -6.00658461035e+00
    -5.90401594693e+00 -5.80343408423e+00 -5.70481624437e+00 -5.60814066531e+00
    -5.51338544196e+00 -5.42052768517e+00 -5.32954296303e+00 -5.24040498378e+00
    -5.15308547763e+00 -5.06755423501e+00 -4.98377926092e+00 -4.90172700872e+00
    -4.82136266196e+00 -4.74265043746e+00 -4.66555388908e+00 -4.59003619650e+00
    -4.51606042833e+00 -4.44358977313e+00 -4.37258773527e+00 -4.30301829556e+00
    -4.23484603809e+00 -4.16803624659e+00 -4.10255497394e+00 -4.03836908902e+00
    -3.97544630485e+00 -3.91375519194e+00 -3.85326518010e+00 -3.79394655167e+00
    -3.73577042847e+00 -3.67870875451e+00 -3.62273427573e+00 -3.56782051815e+00
    -3.51394176502e+00 -3.46107303368e+00 -3.40919005255e+00 -3.35826923834e+00
    -3.30828767395e+00 -3.25922308683e+00 -3.21105382813e+00 -3.16375885244e+00
    -3.11731769835e+00 -3.07171046955e+00 -3.02691781669e+00 -2.98292091992e+00
    -2.93970147193e+00 -2.89724166172e+00 -2.85552415887e+00 -2.81453209837e+00
    -2.77424906605e+00 -2.73465908447e+00 -2.69574659926e+00 -2.65749646605e+00
    -2.61989393775e+00 -2.58292465231e+00 -2.54657462093e+00 -2.51083021661e+00
    -2.47567816312e+00 -2.44110552437e+00 -2.40709969408e+00 -2.37364838586e+00
    -2.34073962359e+00 -2.30836173209e+00 -2.27650332816e+00 -2.24515331188e+00
    -2.21430085819e+00 -2.18393540875e+00 -2.15404666409e+00 -2.12462457596e+00
    -2.09565933998e+00 -2.06714138850e+00 -2.03906138367e+00 -2.01141021075e+00
    -1.98417897164e+00 -1.95735897857e+00 -1.93094174803e+00 -1.90491899486e+00
    -1.87928262654e+00 -1.85402473762e+00 -1.82913760435e+00 -1.80461367945e+00
    -1.78044558708e+00 -1.75662611785e+00 -1.73314822411e+00 -1.71000501529e+00
    -1.68718975337e+00 -1.66469584854e+00 -1.64251685493e+00 -1.62064646645e+00
    -1.59907851278e+00 -1.57780695546e+00 -1.55682588406e+00 -1.53612951246e+00
    -1.51571217522e+00 -1.49556832410e+00 -1.47569252453e+00 -1.45607945234e+00
    -1.43672389039e+00 -1.41762072544e+00 -1.39876494493e+00 -1.38015163399e+00
    -1.36177597237e+00 -1.34363323152e+00 -1.32571877169e+00 -1.30802803910e+00
    -1.29055656313e+00 -1.27329995356e+00 -1.25625389791e+00 -1.23941415871e+00
    -1.22277657090e+00 -1.20633703918e+00 -1.19009153546e+00 -1.17403609627e+00
    -1.15816682018e+00 -1.14247986529e+00 -1.12697144669e+00 -1.11163783386e+00
    -1.09647534819e+00 -1.08148036035e+00 -1.06664928776e+00 -1.05197859195e+00
    -1.03746477590e+00 -1.02310438139e+00 -1.00889398623e+00 -9.94830201483e-01
    -9.80909668551e-01 -9.67129056265e-01 -9.53485057810e-01 -9.39974387567e-01
    -9.26593777822e-01 -9.13339975343e-01 -9.00209737781e-01 -8.87199829895e-01
    -8.74307019571e-01 -8.61528073601e-01 -8.48859753198e-01 -8.36298809218e-01
    -8.23841977029e-01 -8.11485971013e-01 -7.99227478622e-01 -7.87063153949e-01
    -7.74989610733e-01 -7.63003414740e-01 -7.51101075408e-01 -7.39279036672e-01
    -7.27533666841e-01 -7.15861247391e-01 -7.04257960505e-01 -6.92719875168e-01
    -6.81242931603e-01 -6.69822923751e-01 -6.58455479496e-01 -6.47136038237e-01
    -6.35859825337e-01 -6.24621822900e-01 -6.13416736162e-01 -6.02238954681e-01
    -5.91082507255e-01 -5.79941009297e-01 -5.68807601038e-01 -5.57674874515e-01
    -5.46534786739e-01 -5.35378555731e-01 -5.24196535066e-01 -5.12978061300e-01
    -5.01711266750e-01 -4.90382847572e-01 -4.78977773445e-01 -4.67478919970e-01
    -4.55866597233e-01 -4.44117936646e-01 -4.32206080717e-01 -4.20099093148e-01
    -4.07758462699e-01 -3.95137000960e-01 -3.82175807687e-01 -3.68799748545e-01
    -3.54910455995e-01 -3.40374985790e-01 -3.25006349617e-01 -3.08527564200e-01
    -2.90498454469e-01 -2.70144642451e-01 -2.45863608446e-01 -2.13116052653e-01
  </PP_LOCAL>
  <PP_NONLOCAL>
    <PP_BETA.1 type="real" size="400" columns="4" index="1" angular_momentum="0" cutoff_radius_index="400">
       1.30488262314e-10  4.17514442360e-09  3.17003667928e-08  1.33557751852e-07
       4.07478715040e-07  1.01361151555e-06  2.18998165018e-06  4.26785662361e-06
       7.68699619729e-06  1.30107693253e-05  2.09411193385e-05  3.23333588093e-05
       4.82107761019e-05  6.97790355979e-05  9.84403539765e-05  1.35807435244e-04
       1.83717147581e-04  2.44243925271e-04  3.19712879613e-04  4.12712602985e-04
       5.26107650721e-04  6.63050686026e-04  8.26994273481e-04  1.02170230753e-03
       1.25126106256e-03  1.52008985204e-03  1.83295128466e-03  2.19496110605e-03
       2.61159761540e-03  3.08871064662e-03  3.63253010492e-03  4.24967404964e-03
       4.94715631530e-03  5.73239366339e-03  6.61321245766e-03  7.59785485685e-03
       8.69498451883e-03  9.91369181069e-03  1.12634985202e-02  1.27543620636e-02
       1.43966791856e-02  1.62012891477e-02  1.81794764000e-02  2.03429727332e-02
       2.27039589059e-02  2.52750657414e-02  2.80693746911e-02  3.11004178553e-02
       3.43821774563e-02  3.79290847538e-02  4.17560183938e-02  4.58783021779e-02
       5.03117022389e-02  5.50724236074e-02  6.01771061474e-02  6.56428198399e-02
       7.14870593874e-02  7.77277381074e-02  8.43831810809e-02  9.14721175140e-02
       9.90136722664e-02  1.07027356495e-01  1.15533057351e-01  1.24551026667e-01
       1.34101868558e-01  1.44206525846e-01  1.54886265231e-01  1.66162661087e-01
       1.78057577789e-01  1.90593150425e-01  2.03791763779e-01  2.17676029422e-01
       2.32268760751e-01  2.47592945808e-01  2.63671717682e-01  2.80528322289e-01
       2.98186083328e-01  3.16668364145e-01  3.35998526296e-01  3.56199884505e-01
       3.77295657763e-01  3.99308916252e-01  4.22262523793e-01  4.46179075478e-01
       4.71080830153e-01  4.96989637388e-01  5.23926858568e-01  5.51913281716e-01
       5.80969029677e-01  6.11113461241e-01  6.42365064817e-01  6.74741344254e-01
       7.08258696398e-01  7.42932280000e-01  7.78775875568e-01  8.15801735821e-01
       8.54020426368e-01  8.93440656303e-01  9.34069098436e-01  9.75910198900e-01
       1.01896597597e+00  1.06323580793e+00  1.10871621001e+00  1.15540060034e+00
       1.20327905512e+00  1.25233805321e+00  1.30256021062e+00  1.35392400527e+00
       1.40640349285e+00  1.45996801457e+00  1.51458189791e+00  1.57020415160e+00
       1.62678815651e+00  1.68428135401e+00  1.74262493405e+00  1.80175352528e+00
       1.86159488987e+00  1.92206962606e+00  1.98309088181e+00  2.04456408336e+00
       2.10638668270e+00  2.16844792856e+00  2.23062866568e+00  2.29280116783e+00
       2.35482901001e+00  2.41656698595e+00  2.47786107724e+00  2.53854848072e+00
       2.59845770090e+00  2.65740871471e+00  2.71521321553e+00  2.77167494389e+00
       2.82659011204e+00  2.87974792917e+00  2.93093123425e+00  2.97991724253e+00
       3.02647841135e+00  3.07038343013e+00  3.11139833827e+00  3.14928777361e+00
       3.18381635264e+00  3.21475018199e+00  3.24185849886e+00  3.26491543589e+00
       3.28370190372e+00  3.29800758190e+00  3.30763300598e+00  3.31239173579e+00
       3.31211258694e+00  3.30664190416e+00  3.29584585230e+00  3.27961269731e+00
       3.25785504689e+00  3.23051201718e+00  3.19755128985e+00  3.15897102133e+00
       3.11480156450e+00  3.06510696213e+00  3.00998617066e+00  2.94957397396e+00
       2.88404154744e+00  2.81359663576e+00  2.73848331059e+00  2.65898127955e+00
       2.57540472321e+00  2.48810064380e+00  2.39744671741e+00  2.30384865031e+00
       2.20773704992e+00  2.10956383165e+00  2.00979819355e+00  1.90892220247e+00
       1.80742604619e+00  1.70580301700e+00  1.60454430220e+00  1.50413366574e+00
       1.40504211262e+00  1.30772263310e+00  1.21260512691e+00  1.12009160852e+00
       1.03055179209e+00  9.44319150417e-01  8.61687533703e-01  7.82908423885e-01
       7.08188886499e-01  6.37690266584e-01  5.71527657323e-01  5.09770151078e-01
       4.52441862461e-01  3.99523693004e-01  3.50955787437e-01  3.06640613340e-01
       2.66446579676e-01  2.30212096165e-01  1.97749965062e-01  1.68851990217e-01
       1.43293685476e-01  1.20838965761e-01  1.01244709377e-01  8.42650889751e-02