<UPF version="2.0.1">
  <PP_INFO>
Converted from CP2K GTH format
       <PP_INPUTFILE>
Cd 
    2    0   10    0
    0.55000000000000       1    3.63395858000000
       3
    0.49127900000000       3   10.11138228000000   -6.50695409000000    1.80457679000000
                                                   11.33558598000000   -4.65939724000000
                                                                        3.69828191000000
    0.59970999000000       2    4.00148729000000   -1.88393578000000
                                                    2.22910288000000
    0.37787256000000       2   -6.13703223000000    1.53571055000000
                                                   -1.74133209000000
       </PP_INPUTFILE>
  </PP_INFO>
  <PP_HEADER
    generated="Generated in analytical, separable form"
    author="Goedecker/Hartwigsen/Hutter/Teter"
    date="Phys.Rev.B58, 3641 (1998); B54, 1703 (1996)"
    comment="This file generated by CP2K ATOM code"
    element="Cd"
    pseudo_type="NC"
    relativistic="scalar"
    is_ultrasoft="F"
    is_paw="F"
    is_coulomb="F"
    has_so="F"
    has_wfc="T"
    has_gipaw="F"
    paw_as_gipaw="F"
    core_correction="F"
    functional="PBE"
    z_valence="12.0000000000"
    total_psenergy="-92.0847430000"
    wfc_cutoff="0.0000000000"
    rho_cutoff="0.0000000000"
    l_max="2"
    l_max_rho="0"
    l_local="-3"
    mesh_size="400"
    number_of_wfc="2"
    number_of_proj="7"/>
  <PP_MESH dx="1.0000000000000000e+00" mesh="400" xmin="1.0000000000000000e+00" rmax="3.7538232999999998e+01" zmesh="4.8000000000000000e+01">
    <PP_R type="real" size="400" columns="4">
       7.22853190584e-12  2.31286432529e-10  1.75607452138e-09  7.39856944537e-09
       2.25727037849e-08  5.61500555707e-08  1.21316292751e-07  2.36422320493e-07
       4.25829084447e-07  7.20744989012e-07  1.16005490915e-06  1.79113976717e-06
       2.67068567771e-06  3.86548166306e-06  5.45320496294e-06  7.52319298002e-06
       1.01772009232e-05  1.35301442221e-05  1.77108248203e-05  2.28626404723e-05
       2.91442761927e-05  3.67303770427e-05  4.58122014526e-05  5.65982543296e-05
       6.93148992117e-05  8.42069487776e-05  1.01538233049e-04  1.21592144665e-04
       1.44672160631e-04  1.71102340018e-04  2.01227797072e-04  2.35415149303e-04
       2.74052940106e-04  3.17552035547e-04  3.66345994967e-04  4.20891415136e-04
       4.81668247687e-04  5.49180089643e-04  6.23954446896e-04  7.06542970501e-04
       7.97521665771e-04  8.97491074118e-04  1.00707642770e-03  1.12692777695e-03
       1.25772009112e-03  1.40015333198e-03  1.55495250098e-03  1.72286765998e-03
       1.90467392601e-03  2.10117144037e-03  2.31318531236e-03  2.54156553820e-03
       2.78718689553e-03  3.05094881400e-03  3.33377522260e-03  3.63661437407e-03
       3.96043864728e-03  4.30624432799e-03  4.67505136882e-03  5.06790312903e-03
       5.48586609482e-03  5.93002958103e-03  6.40150541486e-03  6.90142760243e-03
       7.43095197903e-03  7.99125584389e-03  8.58353758021e-03  9.20901626139e-03
       9.86893124424e-03  1.05645417501e-02  1.12971264349e-02  1.20679829481e-02
       1.28784274833e-02  1.37297943191e-02  1.46234353530e-02  1.55607196278e-02
       1.65430328521e-02  1.75717769162e-02  1.86483694024e-02  1.97742430934e-02
       2.09508454764e-02  2.21796382464e-02  2.34620968078e-02  2.47997097761e-02
       2.61939784799e-02  2.76464164637e-02  2.91585489930e-02  3.07319125619e-02
       3.23680544040e-02  3.40685320070e-02  3.58349126321e-02  3.76687728386e-02
       3.95716980139e-02  4.15452819102e-02  4.35911261879e-02  4.57108399664e-02
       4.79060393828e-02  5.01783471587e-02  5.25293921763e-02  5.49608090629e-02
       5.74742377858e-02  6.00713232566e-02  6.27537149461e-02  6.55230665091e-02
       6.83810354214e-02  7.13292826268e-02  7.43694721957e-02  7.75032709962e-02
       8.07323483757e-02  8.40583758557e-02  8.74830268379e-02  9.10079763235e-02
       9.46349006441e-02  9.83654772053e-02  1.02201384244e-01  1.06144300596e-01
       1.10195905480e-01  1.14357878290e-01  1.18631898405e-01  1.23019645005e-01
       1.27522796911e-01  1.32143032424e-01  1.36882029186e-01  1.41741464052e-01
       1.46723012974e-01  1.51828350893e-01  1.57059151655e-01  1.62417087924e-01
       1.67903831121e-01  1.73521051369e-01  1.79270417446e-01  1.85153596759e-01
       1.91172255326e-01  1.97328057764e-01  2.03622667296e-01  2.10057745770e-01
       2.16634953680e-01  2.23355950208e-01  2.30222393274e-01  2.37235939592e-01
       2.44398244747e-01  2.51710963269e-01  2.59175748728e-01  2.66794253839e-01
       2.74568130569e-01  2.82499030260e-01  2.90588603761e-01  2.98838501574e-01
       3.07250373996e-01  3.15825871286e-01  3.24566643833e-01  3.33474342335e-01
       3.42550617983e-01  3.51797122663e-01  3.61215509160e-01  3.70807431370e-01
       3.80574544524e-01  3.90518505419e-01  4.00640972657e-01  4.10943606896e-01
       4.21428071099e-01  4.32096030808e-01  4.42949154406e-01  4.53989113405e-01
       4.65217582730e-01  4.76636241017e-01  4.88246770917e-01  5.00050859406e-01
       5.12050198107e-01  5.24246483615e-01  5.36641417835e-01  5.49236708323e-01
       5.62034068637e-01  5.75035218695e-01  5.88241885146e-01  6.01655801736e-01
       6.15278709697e-01  6.29112358134e-01  6.43158504427e-01  6.57418914630e-01
       6.71895363892e-01  6.86589636877e-01  7.01503528194e-01  7.16638842840e-01
       7.31997396644e-01  7.47581016724e-01  7.63391541957e-01  7.79430823446e-01
       7.95700725012e-01  8.12203123679e-01  8.28939910182e-01  8.45912989478e-01
       8.63124281265e-01  8.80575720517e-01  8.98269258026e-01  9.16206860955e-01
       9.34390513401e-01  9.52822216969e-01  9.71503991362e-01  9.90437874975e-01
       1.00962592551e+00  1.02907022059e+00  1.04877285840e+00  1.06873595834e+00
       1.08896166167e+00  1.10945213221e+00  1.13020955700e+00  1.15123614703e+00
       1.17253413794e+00  1.19410579078e+00  1.21595339271e+00  1.23807925785e+00
       1.26048572797e+00  1.28317517335e+00  1.30614999360e+00  1.32941261848e+00
       1.35296550876e+00  1.37681115710e+00  1.40095208896e+00  1.42539086350e+00
       1.45013007454e+00  1.47517235154e+00  1.50052036053e+00  1.52617680519e+00
       1.55214442785e+00  1.57842601057e+00  1.60502437624e+00  1.63194238966e+00
       1.65918295875e+00  1.68674903569e+00  1.71464361814e+00  1.74286975047e+00
       1.77143052508e+00  1.80032908367e+00  1.82956861859e+00  1.85915237427e+00
       1.88908364858e+00  1.91936579436e+00  1.95000222087e+00  1.98099639540e+00
       2.01235184480e+00  2.04407215718e+00  2.07616098357e+00  2.10862203968e+00
       2.14145910766e+00  2.17467603802e+00  2.20827675146e+00  2.24226524089e+00
       2.27664557341e+00  2.31142189244e+00  2.34659841990e+00  2.38217945835e+00
       2.41816939337e+00  2.45457269592e+00  2.49139392475e+00  2.52863772900e+00
       2.56630885075e+00  2.60441212779e+00  2.64295249638e+00  2.68193499418e+00
       2.72136476318e+00  2.76124705291e+00  2.80158722354e+00  2.84239074930e+00
       2.88366322184e+00  2.92541035387e+00  2.96763798281e+00  3.01035207467e+00
       3.05355872799e+00  3.09726417797e+00  3.14147480079e+00  3.18619711802e+00
       3.23143780123e+00  3.27720367684e+00  3.32350173102e+00  3.37033911495e+00
       3.41772315014e+00  3.46566133409e+00  3.51416134605e+00  3.56323105315e+00
       3.61287851667e+00  3.66311199862e+00  3.71393996861e+00  3.76537111099e+00
       3.81741433227e+00  3.87007876892e+00  3.92337379544e+00  3.97730903285e+00
       4.03189435749e+00  4.08713991025e+00  4.14305610626e+00  4.19965364490e+00
       4.25694352037e+00  4.31493703276e+00  4.37364579952e+00  4.43308176763e+00
       4.49325722620e+00  4.55418481982e+00  4.61587756241e+00  4.67834885190e+00
       4.74161248552e+00  4.80568267591e+00  4.87057406808e+00  4.93630175712e+00
       5.00288130699e+00  5.07032877013e+00  5.13866070824e+00  5.20789421408e+00
       5.27804693449e+00  5.34913709465e+00  5.42118352367e+00  5.49420568167e+00
       5.56822368827e+00  5.64325835285e+00  5.71933120643e+00  5.79646453548e+00
       5.87468141775e+00  5.95400576017e+00  6.03446233910e+00  6.11607684305e+00
       6.19887591802e+00  6.28288721572e+00  6.36813944483e+00  6.45466242560e+00
       6.54248714801e+00  6.63164583376e+00  6.72217200241e+00  6.81410054208e+00
       6.90746778497e+00  7.00231158817e+00  7.09867142021e+00  7.19658845383e+00
       7.29610566552e+00  7.39726794245e+00  7.50012219742e+00  7.60471749259e+00
       7.71110517277e+00  7.81933900930e+00  7.92947535534e+00  8.04157331379e+00
       8.15569491921e+00  8.27190533484e+00  8.39027306665e+00  8.51087019584e+00
       8.63377263206e+00  8.75906038931e+00  8.88681788726e+00  9.01713428073e+00
       9.15010382043e+00  9.28582624889e+00  9.42440723554e+00  9.56595885564e+00
       9.71060011879e+00  9.85845755290e+00  1.00096658511e+01  1.01643685896e+01
       1.03227190264e+01  1.04848809919e+01  1.06510298839e+01  1.08213537828e+01
       1.09960547046e+01  1.11753500125e+01  1.13594740119e+01  1.15486797575e+01
       1.17432411096e+01  1.19434550779e+01  1.21496445077e+01  1.23621611644e+01
       1.25813892956e+01  1.28077497563e+01  1.30417048124e+01  1.32837637582e+01
       1.35344895202e+01  1.37945064614e+01  1.40645096609e+01  1.43452760122e+01
       1.46376775900e+01  1.49426978619e+01  1.52614515069e+01  1.55952088472e+01
       1.59454262445e+01  1.63137843006e+01  1.67022363949e+01  1.71130711103e+01
       1.75489936059e+01  1.80132332876e+01  1.85096886807e+01  1.90431260874e+01
       1.96194579189e+01  2.02461424280e+01  2.09327744956e+01  2.16919887596e+01
       2.25408969076e+01  2.35034897804e+01  2.46149037070e+01  2.59296118995e+01
       2.75388728474e+01  2.96137651572e+01  3.25383656839e+01  3.75382328098e+01
    </PP_R>
    <PP_RAB type="real" size="400" columns="4">
       3.61412465855e-11  5.78188964494e-10  2.92648282218e-09  9.24648195069e-09
       2.25661064928e-08  4.67720198933e-08  8.66048561826e-08  1.47653397850e-07
       2.36347711306e-07  3.59951248387e-07  5.26551923849e-07  7.45052180357e-07
       1.02515805405e-06  1.37736725537e-06  1.81295628150e-06  2.34396657848e-06
       2.98318977251e-06  3.74415199212e-06  4.64109730401e-06  5.68897028740e-06
       6.90339777347e-06  8.30066977780e-06  9.89771965563e-06  1.17121035113e-05
       1.37619788945e-05  1.60660828183e-05  1.86437091343e-05  2.15146853016e-05
       2.46993485900e-05  2.82185217549e-05  3.20934882265e-05  3.63459668547e-05
       4.09980862524e-05  4.60723587821e-05  5.15916542287e-05  5.75791732062e-05
       6.40584203412e-05  7.10531772822e-05  7.85874755801e-05  8.66855694856e-05
       9.53719087129e-05  1.04671111214e-04  1.14607936011e-04  1.25207256136e-04
       1.36494031713e-04  1.48493283248e-04  1.61230065148e-04  1.74729439530e-04
       1.89016450357e-04  2.04116097938e-04  2.20053313843e-04  2.36852936265e-04
       2.54539685870e-04  2.73138142168e-04  2.92672720446e-04  3.13167649293e-04
       3.34646948751e-04  3.57134409115e-04  3.80653570425e-04  4.05227702659e-04
       4.30879786667e-04  4.57632495857e-04  4.85508178657e-04  5.14528841780e-04
       5.44716134295e-04  5.76091332528e-04  6.08675325798e-04  6.42488603009e-04
       6.77551240098e-04  7.13882888342e-04  7.51502763545e-04  7.90429636085e-04
       8.30681821840e-04  8.72277173981e-04  9.15233075636e-04  9.59566433411e-04
       1.00529367177e-03  1.05243072828e-03  1.10099304962e-03  1.15099558855e-03
       1.20245280156e-03  1.25537864739e-03  1.30978658629e-03  1.36568958013e-03
       1.42310009316e-03  1.48203009352e-03  1.54249105553e-03  1.60449396261e-03
       1.66804931085e-03  1.73316711327e-03  1.79985690471e-03  1.86812774726e-03
       1.93798823631e-03  2.00944650717e-03  2.08251024216e-03  2.15718667826e-03
       2.23348261517e-03  2.31140442393e-03  2.39095805584e-03  2.47214905185e-03
       2.55498255237e-03  2.63946330735e-03  2.72559568672e-03  2.81338369116e-03
       2.90283096313e-03  2.99394079816e-03  3.08671615638e-03  3.18115967427e-03
       3.27727367655e-03  3.37506018837e-03  3.47452094746e-03  3.57565741662e-03
       3.67847079612e-03  3.78296203635e-03  3.88913185047e-03  3.99698072711e-03
       4.10650894313e-03  4.21771657643e-03  4.33060351870e-03  4.44516948823e-03
       4.56141404268e-03  4.67933659180e-03  4.79893641013e-03  4.92021264962e-03
       5.04316435224e-03  5.16779046239e-03  5.29408983939e-03  5.42206126976e-03
       5.55170347939e-03  5.68301514572e-03  5.81599490964e-03  5.95064138743e-03
       6.08695318243e-03  6.22492889668e-03  6.36456714239e-03  6.50586655324e-03
       6.64882579562e-03  6.79344357961e-03  6.93971866996e-03  7.08764989676e-03
       7.23723616609e-03  7.38847647051e-03  7.54136989931e-03  7.69591564869e-03
       7.85211303184e-03  8.00996148875e-03  8.16946059599e-03  8.33061007627e-03
       8.49340980796e-03  8.65785983438e-03  8.82396037303e-03  8.99171182463e-03
       9.16111478213e-03  9.33217003952e-03  9.50487860054e-03  9.67924168738e-03
       9.85526074909e-03  1.00329374701e-02  1.02122737786e-02  1.03932718546e-02
       1.05759341383e-02  1.07602633380e-02  1.09462624384e-02  1.11339347085e-02
       1.13232837093e-02  1.15143133018e-02  1.17070276553e-02  1.19014312544e-02
       1.20975289074e-02  1.22953257540e-02  1.24948272730e-02  1.26960392898e-02
       1.28989679849e-02  1.31036199010e-02  1.33100019513e-02  1.35181214271e-02
       1.37279860059e-02  1.39396037594e-02  1.41529831613e-02  1.43681330957e-02
       1.45850628651e-02  1.48037821990e-02  1.50243012616e-02  1.52466306612e-02
       1.54707814582e-02  1.56967651740e-02  1.59245938001e-02  1.61542798069e-02
       1.63858361531e-02  1.66192762949e-02  1.68546141958e-02  1.70918643364e-02
       1.73310417239e-02  1.75721619032e-02  1.78152409666e-02  1.80602955647e-02
       1.83073429176e-02  1.85564008260e-02  1.88074876825e-02  1.90606224840e-02
       1.93158248431e-02  1.95731150013e-02  1.98325138416e-02  2.00940429014e-02
       2.03577243866e-02  2.06235811853e-02  2.08916368820e-02  2.11619157732e-02
       2.14344428818e-02  2.17092439735e-02  2.19863455727e-02  2.22657749796e-02
       2.25475602874e-02  2.28317304000e-02  2.31183150508e-02  2.34073448215e-02
       2.36988511620e-02  2.39928664106e-02  2.42894238152e-02  2.45885575550e-02
       2.48903027631e-02  2.51946955496e-02  2.55017730261e-02  2.58115733300e-02
       2.61241356509e-02  2.64395002570e-02  2.67577085230e-02  2.70788029585e-02
       2.74028272380e-02  2.77298262314e-02  2.80598460359e-02  2.83929340093e-02
       2.87291388041e-02  2.90685104029e-02  2.94111001556e-02  2.97569608172e-02
       3.01061465878e-02  3.04587131537e-02  3.08147177300e-02  3.11742191050e-02
       3.15372776865e-02  3.19039555494e-02  3.22743164852e-02  3.26484260542e-02
       3.30263516388e-02  3.34081624992e-02  3.37939298318e-02  3.41837268292e-02
       3.45776287430e-02  3.49757129491e-02  3.53780590159e-02  3.57847487745e-02
       3.61958663928e-02  3.66114984521e-02  3.70317340266e-02  3.74566647672e-02
       3.78863849879e-02  3.83209917562e-02  3.87605849875e-02  3.92052675434e-02
       3.96551453346e-02  4.01103274272e-02  4.05709261555e-02  4.10370572379e-02
       4.15088398991e-02  4.19863969978e-02  4.24698551591e-02  4.29593449144e-02
       4.34550008465e-02  4.39569617420e-02  4.44653707506e-02  4.49803755518e-02
       4.55021285297e-02  4.60307869559e-02  4.65665131809e-02  4.71094748354e-02
       4.76598450408e-02  4.82178026302e-02  4.87835323804e-02  4.93572252552e-02
       4.99390786613e-02  5.05292967168e-02  5.11280905335e-02  5.17356785135e-02
       5.23522866620e-02  5.29781489152e-02  5.36135074867e-02  5.42586132312e-02
       5.49137260290e-02  5.55791151901e-02  5.62550598814e-02  5.69418495762e-02
       5.76397845305e-02  5.83491762843e-02  5.90703481923e-02  5.98036359845e-02
       6.05493883598e-02  6.13079676134e-02  6.20797503018e-02  6.28651279469e-02
       6.36645077828e-02  6.44783135474e-02  6.53069863229e-02  6.61509854281e-02
       6.70107893669e-02  6.78868968360e-02  6.87798277976e-02  6.96901246213e-02
       7.06183532999e-02  7.15651047463e-02  7.25309961761e-02  7.35166725840e-02
       7.45228083204e-02  7.55501087773e-02  7.65993121914e-02  7.76711915748e-02
       7.87665567834e-02  7.98862567351e-02  8.10311817903e-02  8.22022663084e-02
       8.34004913967e-02  8.46268878675e-02  8.58825394232e-02  8.71685860891e-02
       8.84862279179e-02  8.98367289899e-02  9.12214217379e-02  9.26417116279e-02
       9.40990822294e-02  9.55951007141e-02  9.71314238267e-02  9.87098043742e-02
       1.00332098288e-01  1.02000272319e-01  1.03716412432e-01  1.05482732973e-01
       1.07301586698e-01  1.09175475763e-01  1.11107063760e-01  1.13099188958e-01
       1.15154878853e-01  1.17277366205e-01  1.19470106734e-01  1.21736798670e-01
       1.24081404414e-01  1.26508174543e-01  1.29021674500e-01  1.31626814292e-01
       1.34328881621e-01  1.37133578915e-01  1.40047064795e-01  1.43076000627e-01
       1.46227602890e-01  1.49509702229e-01  1.52930810211e-01  1.56500194981e-01
       1.60227967241e-01  1.64125178212e-01  1.68203931607e-01  1.72477511980e-01
       1.76960532329e-01  1.81669104410e-01  1.86621035940e-01  1.91836059782e-01
       1.97336101321e-01  2.03145591685e-01  2.09291836235e-01  2.15805450050e-01
       2.22720875073e-01  2.30076997349e-01  2.37917887698e-01  2.46293695651e-01
       2.55261734930e-01  2.64887810143e-01  2.75247849657e-01  2.86429930338e-01
       2.98536808495e-01  3.11689111057e-01  3.26029397081e-01  3.41727379682e-01
       3.58986714553e-01  3.78053932212e-01  3.99230347686e-01  4.22888173580e-01
       4.49492675599e-01  4.79633190252e-01  5.14067435763e-01  5.53786274450e-01
       6.00110855785e-01  6.54842747474e-01  7.20504143675e-01  8.00738214302e-01
       9.01009712949e-01  1.02990611082e+00  1.20173985634e+00  1.44227336796e+00
       1.80303143236e+00  2.40423865599e+00  3.60656595712e+00  7.21335303926e+00
    </PP_RAB>
  </PP_MESH>
  <PP_LOCAL type="real" size="400" columns="4">
    -2.75488636750e+01 -2.75488636750e+01 -2.75488636750e+01 -2.75488636750e+01
    -2.75488636750e+01 -2.75488636750e+01 -2.75488636750e+01 -2.75488636750e+01
    -2.75488636750e+01 -2.75488636750e+01 -2.75488636750e+01 -2.75488636750e+01
    -2.75488636750e+01 -2.75488636749e+01 -2.75488636748e+01 -2.75488636746e+01
    -2.75488636743e+01 -2.75488636737e+01 -2.75488636728e+01 -2.75488636713e+01
    -2.75488636689e+01 -2.75488636654e+01 -2.75488636600e+01 -2.75488636521e+01
    -2.75488636406e+01 -2.75488636242e+01 -2.75488636011e+01 -2.75488635690e+01
    -2.75488635250e+01 -2.75488634651e+01 -2.75488633847e+01 -2.75488632777e+01
    -2.75488631366e+01 -2.75488629521e+01 -2.75488627128e+01 -2.75488624049e+01
    -2.75488620116e+01 -2.75488615127e+01 -2.75488608837e+01 -2.75488600959e+01
    -2.75488591148e+01 -2.75488578999e+01 -2.75488564035e+01 -2.75488545697e+01
    -2.75488523335e+01 -2.75488496193e+01 -2.75488463395e+01 -2.75488423934e+01
    -2.75488376649e+01 -2.75488320213e+01 -2.75488253111e+01 -2.75488173619e+01
    -2.75488079777e+01 -2.75487969372e+01 -2.75487839904e+01 -2.75487688558e+01
    -2.75487512175e+01 -2.75487307216e+01 -2.75487069728e+01 -2.75486795304e+01
    -2.75486479041e+01 -2.75486115498e+01 -2.75485698647e+01 -2.75485221828e+01
    -2.75484677690e+01 -2.75484058142e+01 -2.75483354290e+01 -2.75482556375e+01
    -2.75481653711e+01 -2.75480634614e+01 -2.75479486331e+01 -2.75478194964e+01
    -2.75476745388e+01 -2.75475121173e+01 -2.75473304497e+01 -2.75471276050e+01
    -2.75469014946e+01 -2.75466498621e+01 -2.75463702733e+01 -2.75460601054e+01
    -2.75457165360e+01 -2.75453365320e+01 -2.75449168374e+01 -2.75444539609e+01
    -2.75439441638e+01 -2.75433834465e+01 -2.75427675348e+01 -2.75420918666e+01
    -2.75413515768e+01 -2.75405414831e+01 -2.75396560703e+01 -2.75386894750e+01
    -2.75376354694e+01 -2.75364874447e+01 -2.75352383941e+01 -2.75338808958e+01
    -2.75324070946e+01 -2.75308086843e+01 -2.75290768885e+01 -2.75272024417e+01
    -2.75251755700e+01 -2.75229859706e+01 -2.75206227919e+01 -2.75180746124e+01
    -2.75153294196e+01 -2.75123745883e+01 -2.75091968582e+01 -2.75057823120e+01
    -2.75021163517e+01 -2.74981836757e+01 -2.74939682548e+01 -2.74894533080e+01
    -2.74846212780e+01 -2.74794538055e+01 -2.74739317048e+01 -2.74680349368e+01
    -2.74617425833e+01 -2.74550328203e+01 -2.74478828905e+01 -2.74402690763e+01
    -2.74321666716e+01 -2.74235499537e+01 -2.74143921550e+01 -2.74046654339e+01
    -2.73943408456e+01 -2.73833883129e+01 -2.73717765968e+01 -2.73594732662e+01
    -2.73464446683e+01 -2.73326558989e+01 -2.73180707717e+01 -2.73026517894e+01
    -2.72863601130e+01 -2.72691555332e+01 -2.72509964405e+01 -2.72318397975e+01
    -2.72116411106e+01 -2.71903544026e+01 -2.71679321874e+01 -2.71443254448e+01
    -2.71194835971e+01 -2.70933544875e+01 -2.70658843608e+01 -2.70370178456e+01
    -2.70066979400e+01 -2.69748660000e+01 -2.69414617312e+01 -2.69064231849e+01
    -2.68696867580e+01 -2.68311871982e+01 -2.67908576147e+01 -2.67486294952e+01
    -2.67044327290e+01 -2.66581956380e+01 -2.66098450164e+01 -2.65593061783e+01
    -2.65065030157e+01 -2.64513580673e+01 -2.63937925983e+01 -2.63337266930e+01
    -2.62710793603e+01 -2.62057686538e+01 -2.61377118071e+01 -2.60668253849e+01
    -2.59930254514e+01 -2.59162277568e+01 -2.58363479420e+01 -2.57533017635e+01
    -2.56670053381e+01 -2.55773754091e+01 -2.54843296336e+01 -2.53877868913e+01
    -2.52876676164e+01 -2.51838941503e+01 -2.50763911174e+01 -2.49650858218e+01
    -2.48499086656e+01 -2.47307935861e+01 -2.46076785137e+01 -2.44805058448e+01
    -2.43492229325e+01 -2.42137825887e+01 -2.40741435974e+01 -2.39302712362e+01
    -2.37821378008e+01 -2.36297231307e+01 -2.34730151306e+01 -2.33120102837e+01
    -2.31467141512e+01 -2.29771418535e+01 -2.28033185264e+01 -2.26252797482e+01
    -2.24430719297e+01 -2.22567526616e+01 -2.20663910141e+01 -2.18720677807e+01
    -2.16738756610e+01 -2.14719193766e+01 -2.12663157140e+01 -2.10571934896e+01
    -2.08446934325e+01 -2.06289679799e+01 -2.04101809832e+01 -2.01885073217e+01
    -1.99641324228e+01 -1.97372516884e+01 -1.95080698287e+01 -1.92768001045e+01
    -1.90436634837e+01 -1.88088877145e+01 -1.85727063230e+01 -1.83353575420e+01
    -1.80970831801e+01 -1.78581274420e+01 -1.76187357086e+01 -1.73791532926e+01
    -1.71396241788e+01 -1.69003897662e+01 -1.66616876226e+01 -1.64237502682e+01
    -1.61868040010e+01 -1.59510677786e+01 -1.57167521675e+01 -1.54840583755e+01
    -1.52531773749e+01 -1.50242891285e+01 -1.47975619257e+01 -1.45731518356e+01
    -1.43512022811e+01 -1.41318437382e+01 -1.39151935588e+01 -1.37013559180e+01
    -1.34904218815e+01 -1.32824695865e+01 -1.30775645328e+01 -1.28757599710e+01
    -1.26770973815e+01 -1.24816070311e+01 -1.22893085966e+01 -1.21002118423e+01
    -1.19143173388e+01 -1.17316172105e+01 -1.15520959001e+01 -1.13757309375e+01
    -1.12024937021e+01 -1.10323501697e+01 -1.08652616342e+01 -1.07011853959e+01
    -1.05400754127e+01 -1.03818829061e+01 -1.02265569212e+01 -1.00740448368e+01
    -9.92429282512e+00 -9.77724626204e+00 -9.63285008696e+00 -9.49104911626e+00
    -9.35178831150e+00 -9.21501300605e+00 -9.08066909332e+00 -8.94870318029e+00
    -8.81906271005e+00 -8.69169605709e+00 -8.56655259884e+00 -8.44358276703e+00
    -8.32273808184e+00 -8.20397117192e+00 -8.08723578269e+00 -7.97248677537e+00
    -7.85968011854e+00 -7.74877287410e+00 -7.63972317881e+00 -7.53249022283e+00
    -7.42703422599e+00 -7.32331641264e+00 -7.22129898571e+00 -7.12094510027e+00
    -7.02221883719e+00 -6.92508517687e+00 -6.82950997343e+00 -6.73545992944e+00
    -6.64290257114e+00 -6.55180622438e+00 -6.46213999126e+00 -6.37387372734e+00
    -6.28697801967e+00 -6.20142416537e+00 -6.11718415095e+00 -6.03423063223e+00
    -5.95253691491e+00 -5.87207693570e+00 -5.79282524408e+00 -5.71475698458e+00
    -5.63784787962e+00 -5.56207421285e+00 -5.48741281304e+00 -5.41384103836e+00
    -5.34133676123e+00 -5.26987835355e+00 -5.19944467233e+00 -5.13001504586e+00
    -5.06156926010e+00 -4.99408754562e+00 -4.92755056479e+00 -4.86193939934e+00
    -4.79723553834e+00 -4.73342086639e+00 -4.67047765218e+00 -4.60838853737e+00
    -4.54713652566e+00 -4.48670497229e+00 -4.42707757360e+00 -4.36823835702e+00
    -4.31017167118e+00 -4.25286217631e+00 -4.19629483479e+00 -4.14045490197e+00
    -4.08532791710e+00 -4.03089969455e+00 -3.97715631507e+00 -3.92408411730e+00
    -3.87166968938e+00 -3.81989986068e+00 -3.76876169373e+00 -3.71824247614e+00
    -3.66832971270e+00 -3.61901111755e+00 -3.57027460639e+00 -3.52210828880e+00
    -3.47450046053e+00 -3.42743959588e+00 -3.38091434007e+00 -3.33491350158e+00
    -3.28942604456e+00 -3.24444108105e+00 -3.19994786328e+00 -3.15593577584e+00
    -3.11239432770e+00 -3.06931314417e+00 -3.02668195871e+00 -2.98449060445e+00
    -2.94272900565e+00 -2.90138716880e+00 -2.86045517343e+00 -2.81992316270e+00
    -2.77978133347e+00 -2.74001992603e+00 -2.70062921334e+00 -2.66159948968e+00
    -2.62292105871e+00 -2.58458422080e+00 -2.54657925960e+00 -2.50889642765e+00
    -2.47152593109e+00 -2.43445791304e+00 -2.39768243587e+00 -2.36118946185e+00
    -2.32496883220e+00 -2.28901024422e+00 -2.25330322622e+00 -2.21783711002e+00
    -2.18260100052e+00 -2.14758374217e+00 -2.11277388151e+00 -2.07815962551e+00
    -2.04372879481e+00 -2.00946877125e+00 -1.97536643849e+00 -1.94140811471e+00
    -1.90757947601e+00 -1.87386546870e+00 -1.84025020849e+00 -1.80671686404e+00
    -1.77324752176e+00 -1.73982302789e+00 -1.70642280311e+00 -1.67302462354e+00
    -1.63960436022e+00 -1.60613566719e+00 -1.57258960520e+00 -1.53893418390e+00
    -1.50513380025e+00 -1.47114854271e+00 -1.43693332034e+00 -1.40243675991e+00
    -1.36759979170e+00 -1.33235380994e+00 -1.29661824215e+00 -1.26029727944e+00
    -1.22327538810e+00 -1.18541100288e+00 -1.14652742306e+00 -1.10639924564e+00
    -1.06473136798e+00 -1.02112495737e+00 -9.75019048851e-01 -9.25582692598e-01
    -8.71495363408e-01 -8.10433927351e-01 -7.37590825339e-01 -6.39348157960e-01
  </PP_LOCAL>
  <PP_NONLOCAL>
    <PP_BETA.1 type="real" size="400" columns="4" index="1" angular_momentum="0" cutoff_radius_index="400">
       6.30710883029e-11  2.01804283350e-09  1.53222718869e-08  6.45547163493e-08
       1.96953546335e-07  4.89925915697e-07  1.05852069443e-06  2.06285498173e-06
       3.71548526546e-06  6.28871414527e-06  1.01218237069e-05  1.56282265734e-05
       2.33025259347e-05  3.37274758516e-05  4.75808333159e-05  6.56420937041e-05
       8.87991014394e-05  1.18054527776e-04  1.54532207920e-04  1.99483329850e-04
       2.54292467403e-04  3.20483450521e-04  3.99725065648e-04  4.93836579740e-04
       6.04793081406e-04  7.34730633167e-04  8.85951229020e-04  1.06092755183e-03
       1.26230752542e-03  1.49291865653e-03  1.75577216214e-03  2.05406687806e-03
       2.39119294497e-03  2.77073526847e-03  3.19647675002e-03  3.67240128613e-03
       4.20269653328e-03  4.79175643654e-03  5.44418352026e-03  6.16479093926e-03
       6.95860428954e-03  7.83086317763e-03  8.78702254797e-03  9.83275376813e-03
       1.09739454715e-02  1.22167041580e-02  1.35673545518e-02  1.50324397187e-02
       1.66187209400e-02  1.83331773471e-02  2.01830053133e-02  2.21756176065e-02
       2.43186422992e-02  2.66199214389e-02  2.90875094753e-02  3.17296714452e-02
       3.45548809125e-02  3.75718176615e-02  4.07893651402e-02  4.42166076504e-02
       4.78628272799e-02  5.17375005700e-02  5.58502949139e-02  6.02110646750e-02
       6.48298470184e-02  6.97168574425e-02  7.48824849992e-02  8.03372871880e-02
       8.60919845076e-02  9.21574546466e-02  9.85447262928e-02  1.05264972537e-01
       1.12329503850e-01  1.19749760593e-01  1.27537305055e-01  1.35703812944e-01
       1.44261064343e-01  1.53220934048e-01  1.62595381270e-01  1.72396438647e-01
       1.82636200510e-01  1.93326810366e-01  2.04480447514e-01  2.16109312755e-01
       2.28225613128e-01  2.40841545585e-01  2.53969279551e-01  2.67620938290e-01
       2.81808578983e-01  2.96544171446e-01  3.11839575393e-01  3.27706516159e-01
       3.44156558776e-01  3.61201080318e-01  3.78851240397e-01  3.97117949725e-01
       4.16011836614e-01  4.35543211330e-01  4.55722028165e-01  4.76557845144e-01
       4.98059781234e-01  5.20236470961e-01  5.43096016319e-01  5.66645935868e-01
       5.90893110921e-01  6.15843728725e-01  6.41503222529e-01  6.67876208487e-01
       6.94966419288e-01  7.22776634471e-01  7.51308607366e-01  7.80562988628e-01
       8.10539246342e-01  8.41235582697e-01  8.72648847252e-01  9.04774446848e-01
       9.37606252217e-01  9.71136501419e-01  1.00535570022e+00  1.04025251958e+00
       1.07581369051e+00  1.11202389649e+00  1.14886566379e+00  1.18631925005e+00
       1.22436253149e+00  1.26297088930e+00  1.30211709565e+00  1.34177119996e+00
       1.38190041612e+00  1.42246901136e+00  1.46343819760e+00  1.50476602622e+00
       1.54640728715e+00  1.58831341346e+00  1.63043239245e+00  1.67270868467e+00
       1.71508315198e+00  1.75749299629e+00  1.79987171030e+00  1.84214904187e+00
       1.88425097371e+00  1.92609972011e+00  1.96761374244e+00  2.00870778526e+00
       2.04929293505e+00  2.08927670322e+00  2.12856313561e+00  2.16705295010e+00
       2.20464370440e+00  2.24122999580e+00  2.27670369453e+00  2.31095421251e+00
       2.34386880888e+00  2.37533293362e+00  2.40523061049e+00  2.43344485995e+00
       2.45985816285e+00  2.48435296484e+00  2.50681222170e+00  2.52711998465e+00
       2.54516202488e+00  2.56082649557e+00  2.57400462944e+00  2.58459146897e+00
       2.59248662612e+00  2.59759506742e+00  2.59982791989e+00  2.59910329229e+00
       2.59534710569e+00  2.58849392648e+00  2.57848779446e+00  2.56528303756e+00
       2.54884506469e+00  2.52915112703e+00  2.50619103804e+00  2.47996784168e+00
       2.45049841834e+00  2.41781401745e+00  2.38196070599e+00  2.34299972198e+00