<UPF version="2.0.1">
  <PP_INFO>
Converted from CP2K GTH format
       <PP_INPUTFILE>
Ga 
    2    1    0    0
    0.56000000000000       0
       3
    0.56586645000000       3    2.21575051000000    1.03244793000000   -0.76062946000000
                                                   -2.57004845000000    1.96393682000000
                                                                       -1.55882652000000
    0.64671613000000       2    0.31122394000000    0.61341605000000
                                                   -0.72580366000000
    0.99942484000000       1    0.08951951000000
       </PP_INPUTFILE>
  </PP_INFO>
  <PP_HEADER
    generated="Generated in analytical, separable form"
    author="Goedecker/Hartwigsen/Hutter/Teter"
    date="Phys.Rev.B58, 3641 (1998); B54, 1703 (1996)"
    comment="This file generated by CP2K ATOM code"
    element="Ga"
    pseudo_type="NC"
    relativistic="scalar"
    is_ultrasoft="F"
    is_paw="F"
    is_coulomb="F"
    has_so="F"
    has_wfc="T"
    has_gipaw="F"
    paw_as_gipaw="F"
    core_correction="F"
    functional="PBE"
    z_valence="3.0000000000"
    total_psenergy="-4.1877936000"
    wfc_cutoff="0.0000000000"
    rho_cutoff="0.0000000000"
    l_max="2"
    l_max_rho="0"
    l_local="-3"
    mesh_size="400"
    number_of_wfc="2"
    number_of_proj="6"/>
  <PP_MESH dx="1.0000000000000000e+00" mesh="400" xmin="1.0000000000000000e+00" rmax="3.7538232999999998e+01" zmesh="3.1000000000000000e+01">
    <PP_R type="real" size="400" columns="4">
       7.22853190584e-12  2.31286432529e-10  1.75607452138e-09  7.39856944537e-09
       2.25727037849e-08  5.61500555707e-08  1.21316292751e-07  2.36422320493e-07
       4.25829084447e-07  7.20744989012e-07  1.16005490915e-06  1.79113976717e-06
       2.67068567771e-06  3.86548166306e-06  5.45320496294e-06  7.52319298002e-06
       1.01772009232e-05  1.35301442221e-05  1.77108248203e-05  2.28626404723e-05
       2.91442761927e-05  3.67303770427e-05  4.58122014526e-05  5.65982543296e-05
       6.93148992117e-05  8.42069487776e-05  1.01538233049e-04  1.21592144665e-04
       1.44672160631e-04  1.71102340018e-04  2.01227797072e-04  2.35415149303e-04
       2.74052940106e-04  3.17552035547e-04  3.66345994967e-04  4.20891415136e-04
       4.81668247687e-04  5.49180089643e-04  6.23954446896e-04  7.06542970501e-04
       7.97521665771e-04  8.97491074118e-04  1.00707642770e-03  1.12692777695e-03
       1.25772009112e-03  1.40015333198e-03  1.55495250098e-03  1.72286765998e-03
       1.90467392601e-03  2.10117144037e-03  2.31318531236e-03  2.54156553820e-03
       2.78718689553e-03  3.05094881400e-03  3.33377522260e-03  3.63661437407e-03
       3.96043864728e-03  4.30624432799e-03  4.67505136882e-03  5.06790312903e-03
       5.48586609482e-03  5.93002958103e-03  6.40150541486e-03  6.90142760243e-03
       7.43095197903e-03  7.99125584389e-03  8.58353758021e-03  9.20901626139e-03
       9.86893124424e-03  1.05645417501e-02  1.12971264349e-02  1.20679829481e-02
       1.28784274833e-02  1.37297943191e-02  1.46234353530e-02  1.55607196278e-02
       1.65430328521e-02  1.75717769162e-02  1.86483694024e-02  1.97742430934e-02
       2.09508454764e-02  2.21796382464e-02  2.34620968078e-02  2.47997097761e-02
       2.61939784799e-02  2.76464164637e-02  2.91585489930e-02  3.07319125619e-02
       3.23680544040e-02  3.40685320070e-02  3.58349126321e-02  3.76687728386e-02
       3.95716980139e-02  4.15452819102e-02  4.35911261879e-02  4.57108399664e-02
       4.79060393828e-02  5.01783471587e-02  5.25293921763e-02  5.49608090629e-02
       5.74742377858e-02  6.00713232566e-02  6.27537149461e-02  6.55230665091e-02
       6.83810354214e-02  7.13292826268e-02  7.43694721957e-02  7.75032709962e-02
       8.07323483757e-02  8.40583758557e-02  8.74830268379e-02  9.10079763235e-02
       9.46349006441e-02  9.83654772053e-02  1.02201384244e-01  1.06144300596e-01
       1.10195905480e-01  1.14357878290e-01  1.18631898405e-01  1.23019645005e-01
       1.27522796911e-01  1.32143032424e-01  1.36882029186e-01  1.41741464052e-01
       1.46723012974e-01  1.51828350893e-01  1.57059151655e-01  1.62417087924e-01
       1.67903831121e-01  1.73521051369e-01  1.79270417446e-01  1.85153596759e-01
       1.91172255326e-01  1.97328057764e-01  2.03622667296e-01  2.10057745770e-01
       2.16634953680e-01  2.23355950208e-01  2.30222393274e-01  2.37235939592e-01
       2.44398244747e-01  2.51710963269e-01  2.59175748728e-01  2.66794253839e-01
       2.74568130569e-01  2.82499030260e-01  2.90588603761e-01  2.98838501574e-01
       3.07250373996e-01  3.15825871286e-01  3.24566643833e-01  3.33474342335e-01
       3.42550617983e-01  3.51797122663e-01  3.61215509160e-01  3.70807431370e-01
       3.80574544524e-01  3.90518505419e-01  4.00640972657e-01  4.10943606896e-01
       4.21428071099e-01  4.32096030808e-01  4.42949154406e-01  4.53989113405e-01
       4.65217582730e-01  4.76636241017e-01  4.88246770917e-01  5.00050859406e-01
       5.12050198107e-01  5.24246483615e-01  5.36641417835e-01  5.49236708323e-01
       5.62034068637e-01  5.75035218695e-01  5.88241885146e-01  6.01655801736e-01
       6.15278709697e-01  6.29112358134e-01  6.43158504427e-01  6.57418914630e-01
       6.71895363892e-01  6.86589636877e-01  7.01503528194e-01  7.16638842840e-01
       7.31997396644e-01  7.47581016724e-01  7.63391541957e-01  7.79430823446e-01
       7.95700725012e-01  8.12203123679e-01  8.28939910182e-01  8.45912989478e-01
       8.63124281265e-01  8.80575720517e-01  8.98269258026e-01  9.16206860955e-01
       9.34390513401e-01  9.52822216969e-01  9.71503991362e-01  9.90437874975e-01
       1.00962592551e+00  1.02907022059e+00  1.04877285840e+00  1.06873595834e+00
       1.08896166167e+00  1.10945213221e+00  1.13020955700e+00  1.15123614703e+00
       1.17253413794e+00  1.19410579078e+00  1.21595339271e+00  1.23807925785e+00
       1.26048572797e+00  1.28317517335e+00  1.30614999360e+00  1.32941261848e+00
       1.35296550876e+00  1.37681115710e+00  1.40095208896e+00  1.42539086350e+00
       1.45013007454e+00  1.47517235154e+00  1.50052036053e+00  1.52617680519e+00
       1.55214442785e+00  1.57842601057e+00  1.60502437624e+00  1.63194238966e+00
       1.65918295875e+00  1.68674903569e+00  1.71464361814e+00  1.74286975047e+00
       1.77143052508e+00  1.80032908367e+00  1.82956861859e+00  1.85915237427e+00
       1.88908364858e+00  1.91936579436e+00  1.95000222087e+00  1.98099639540e+00
       2.01235184480e+00  2.04407215718e+00  2.07616098357e+00  2.10862203968e+00
       2.14145910766e+00  2.17467603802e+00  2.20827675146e+00  2.24226524089e+00
       2.27664557341e+00  2.31142189244e+00  2.34659841990e+00  2.38217945835e+00
       2.41816939337e+00  2.45457269592e+00  2.49139392475e+00  2.52863772900e+00
       2.56630885075e+00  2.60441212779e+00  2.64295249638e+00  2.68193499418e+00
       2.72136476318e+00  2.76124705291e+00  2.80158722354e+00  2.84239074930e+00
       2.88366322184e+00  2.92541035387e+00  2.96763798281e+00  3.01035207467e+00
       3.05355872799e+00  3.09726417797e+00  3.14147480079e+00  3.18619711802e+00
       3.23143780123e+00  3.27720367684e+00  3.32350173102e+00  3.37033911495e+00
       3.41772315014e+00  3.46566133409e+00  3.51416134605e+00  3.56323105315e+00
       3.61287851667e+00  3.66311199862e+00  3.71393996861e+00  3.76537111099e+00
       3.81741433227e+00  3.87007876892e+00  3.92337379544e+00  3.97730903285e+00
       4.03189435749e+00  4.08713991025e+00  4.14305610626e+00  4.19965364490e+00
       4.25694352037e+00  4.31493703276e+00  4.37364579952e+00  4.43308176763e+00
       4.49325722620e+00  4.55418481982e+00  4.61587756241e+00  4.67834885190e+00
       4.74161248552e+00  4.80568267591e+00  4.87057406808e+00  4.93630175712e+00
       5.00288130699e+00  5.07032877013e+00  5.13866070824e+00  5.20789421408e+00
       5.27804693449e+00  5.34913709465e+00  5.42118352367e+00  5.49420568167e+00
       5.56822368827e+00  5.64325835285e+00  5.71933120643e+00  5.79646453548e+00
       5.87468141775e+00  5.95400576017e+00  6.03446233910e+00  6.11607684305e+00
       6.19887591802e+00  6.28288721572e+00  6.36813944483e+00  6.45466242560e+00
       6.54248714801e+00  6.63164583376e+00  6.72217200241e+00  6.81410054208e+00
       6.90746778497e+00  7.00231158817e+00  7.09867142021e+00  7.19658845383e+00
       7.29610566552e+00  7.39726794245e+00  7.50012219742e+00  7.60471749259e+00
       7.71110517277e+00  7.81933900930e+00  7.92947535534e+00  8.04157331379e+00
       8.15569491921e+00  8.27190533484e+00  8.39027306665e+00  8.51087019584e+00
       8.63377263206e+00  8.75906038931e+00  8.88681788726e+00  9.01713428073e+00
       9.15010382043e+00  9.28582624889e+00  9.42440723554e+00  9.56595885564e+00
       9.71060011879e+00  9.85845755290e+00  1.00096658511e+01  1.01643685896e+01
       1.03227190264e+01  1.04848809919e+01  1.06510298839e+01  1.08213537828e+01
       1.09960547046e+01  1.11753500125e+01  1.13594740119e+01  1.15486797575e+01
       1.17432411096e+01  1.19434550779e+01  1.21496445077e+01  1.23621611644e+01
       1.25813892956e+01  1.28077497563e+01  1.30417048124e+01  1.32837637582e+01
       1.35344895202e+01  1.37945064614e+01  1.40645096609e+01  1.43452760122e+01
       1.46376775900e+01  1.49426978619e+01  1.52614515069e+01  1.55952088472e+01
       1.59454262445e+01  1.63137843006e+01  1.67022363949e+01  1.71130711103e+01
       1.75489936059e+01  1.80132332876e+01  1.85096886807e+01  1.90431260874e+01
       1.96194579189e+01  2.02461424280e+01  2.09327744956e+01  2.16919887596e+01
       2.25408969076e+01  2.35034897804e+01  2.46149037070e+01  2.59296118995e+01
       2.75388728474e+01  2.96137651572e+01  3.25383656839e+01  3.75382328098e+01
    </PP_R>
    <PP_RAB type="real" size="400" columns="4">
       3.61412465855e-11  5.78188964494e-10  2.92648282218e-09  9.24648195069e-09
       2.25661064928e-08  4.67720198933e-08  8.66048561826e-08  1.47653397850e-07
       2.36347711306e-07  3.59951248387e-07  5.26551923849e-07  7.45052180357e-07
       1.02515805405e-06  1.37736725537e-06  1.81295628150e-06  2.34396657848e-06
       2.98318977251e-06  3.74415199212e-06  4.64109730401e-06  5.68897028740e-06
       6.90339777347e-06  8.30066977780e-06  9.89771965563e-06  1.17121035113e-05
       1.37619788945e-05  1.60660828183e-05  1.86437091343e-05  2.15146853016e-05
       2.46993485900e-05  2.82185217549e-05  3.20934882265e-05  3.63459668547e-05
       4.09980862524e-05  4.60723587821e-05  5.15916542287e-05  5.75791732062e-05
       6.40584203412e-05  7.10531772822e-05  7.85874755801e-05  8.66855694856e-05
       9.53719087129e-05  1.04671111214e-04  1.14607936011e-04  1.25207256136e-04
       1.36494031713e-04  1.48493283248e-04  1.61230065148e-04  1.74729439530e-04
       1.89016450357e-04  2.04116097938e-04  2.20053313843e-04  2.36852936265e-04
       2.54539685870e-04  2.73138142168e-04  2.92672720446e-04  3.13167649293e-04
       3.34646948751e-04  3.57134409115e-04  3.80653570425e-04  4.05227702659e-04
       4.30879786667e-04  4.57632495857e-04  4.85508178657e-04  5.14528841780e-04
       5.44716134295e-04  5.76091332528e-04  6.08675325798e-04  6.42488603009e-04
       6.77551240098e-04  7.13882888342e-04  7.51502763545e-04  7.90429636085e-04
       8.30681821840e-04  8.72277173981e-04  9.15233075636e-04  9.59566433411e-04
       1.00529367177e-03  1.05243072828e-03  1.10099304962e-03  1.15099558855e-03
       1.20245280156e-03  1.25537864739e-03  1.30978658629e-03  1.36568958013e-03
       1.42310009316e-03  1.48203009352e-03  1.54249105553e-03  1.60449396261e-03
       1.66804931085e-03  1.73316711327e-03  1.79985690471e-03  1.86812774726e-03
       1.93798823631e-03  2.00944650717e-03  2.08251024216e-03  2.15718667826e-03
       2.23348261517e-03  2.31140442393e-03  2.39095805584e-03  2.47214905185e-03
       2.55498255237e-03  2.63946330735e-03  2.72559568672e-03  2.81338369116e-03
       2.90283096313e-03  2.99394079816e-03  3.08671615638e-03  3.18115967427e-03
       3.27727367655e-03  3.37506018837e-03  3.47452094746e-03  3.57565741662e-03
       3.67847079612e-03  3.78296203635e-03  3.88913185047e-03  3.99698072711e-03
       4.10650894313e-03  4.21771657643e-03  4.33060351870e-03  4.44516948823e-03
       4.56141404268e-03  4.67933659180e-03  4.79893641013e-03  4.92021264962e-03
       5.04316435224e-03  5.16779046239e-03  5.29408983939e-03  5.42206126976e-03
       5.55170347939e-03  5.68301514572e-03  5.81599490964e-03  5.95064138743e-03
       6.08695318243e-03  6.22492889668e-03  6.36456714239e-03  6.50586655324e-03
       6.64882579562e-03  6.79344357961e-03  6.93971866996e-03  7.08764989676e-03
       7.23723616609e-03  7.38847647051e-03  7.54136989931e-03  7.69591564869e-03
       7.85211303184e-03  8.00996148875e-03  8.16946059599e-03  8.33061007627e-03
       8.49340980796e-03  8.65785983438e-03  8.82396037303e-03  8.99171182463e-03
       9.16111478213e-03  9.33217003952e-03  9.50487860054e-03  9.67924168738e-03
       9.85526074909e-03  1.00329374701e-02  1.02122737786e-02  1.03932718546e-02
       1.05759341383e-02  1.07602633380e-02  1.09462624384e-02  1.11339347085e-02
       1.13232837093e-02  1.15143133018e-02  1.17070276553e-02  1.19014312544e-02
       1.20975289074e-02  1.22953257540e-02  1.24948272730e-02  1.26960392898e-02
       1.28989679849e-02  1.31036199010e-02  1.33100019513e-02  1.35181214271e-02
       1.37279860059e-02  1.39396037594e-02  1.41529831613e-02  1.43681330957e-02
       1.45850628651e-02  1.48037821990e-02  1.50243012616e-02  1.52466306612e-02
       1.54707814582e-02  1.56967651740e-02  1.59245938001e-02  1.61542798069e-02
       1.63858361531e-02  1.66192762949e-02  1.68546141958e-02  1.70918643364e-02
       1.73310417239e-02  1.75721619032e-02  1.78152409666e-02  1.80602955647e-02
       1.83073429176e-02  1.85564008260e-02  1.88074876825e-02  1.90606224840e-02
       1.93158248431e-02  1.95731150013e-02  1.98325138416e-02  2.00940429014e-02
       2.03577243866e-02  2.06235811853e-02  2.08916368820e-02  2.11619157732e-02
       2.14344428818e-02  2.17092439735e-02  2.19863455727e-02  2.22657749796e-02
       2.25475602874e-02  2.28317304000e-02  2.31183150508e-02  2.34073448215e-02
       2.36988511620e-02  2.39928664106e-02  2.42894238152e-02  2.45885575550e-02
       2.48903027631e-02  2.51946955496e-02  2.55017730261e-02  2.58115733300e-02
       2.61241356509e-02  2.64395002570e-02  2.67577085230e-02  2.70788029585e-02
       2.74028272380e-02  2.77298262314e-02  2.80598460359e-02  2.83929340093e-02
       2.87291388041e-02  2.90685104029e-02  2.94111001556e-02  2.97569608172e-02
       3.01061465878e-02  3.04587131537e-02  3.08147177300e-02  3.11742191050e-02
       3.15372776865e-02  3.19039555494e-02  3.22743164852e-02  3.26484260542e-02
       3.30263516388e-02  3.34081624992e-02  3.37939298318e-02  3.41837268292e-02
       3.45776287430e-02  3.49757129491e-02  3.53780590159e-02  3.57847487745e-02
       3.61958663928e-02  3.66114984521e-02  3.70317340266e-02  3.74566647672e-02
       3.78863849879e-02  3.83209917562e-02  3.87605849875e-02  3.92052675434e-02
       3.96551453346e-02  4.01103274272e-02  4.05709261555e-02  4.10370572379e-02
       4.15088398991e-02  4.19863969978e-02  4.24698551591e-02  4.29593449144e-02
       4.34550008465e-02  4.39569617420e-02  4.44653707506e-02  4.49803755518e-02
       4.55021285297e-02  4.60307869559e-02  4.65665131809e-02  4.71094748354e-02
       4.76598450408e-02  4.82178026302e-02  4.87835323804e-02  4.93572252552e-02
       4.99390786613e-02  5.05292967168e-02  5.11280905335e-02  5.17356785135e-02
       5.23522866620e-02  5.29781489152e-02  5.36135074867e-02  5.42586132312e-02
       5.49137260290e-02  5.55791151901e-02  5.62550598814e-02  5.69418495762e-02
       5.76397845305e-02  5.83491762843e-02  5.90703481923e-02  5.98036359845e-02
       6.05493883598e-02  6.13079676134e-02  6.20797503018e-02  6.28651279469e-02
       6.36645077828e-02  6.44783135474e-02  6.53069863229e-02  6.61509854281e-02
       6.70107893669e-02  6.78868968360e-02  6.87798277976e-02  6.96901246213e-02
       7.06183532999e-02  7.15651047463e-02  7.25309961761e-02  7.35166725840e-02
       7.45228083204e-02  7.55501087773e-02  7.65993121914e-02  7.76711915748e-02
       7.87665567834e-02  7.98862567351e-02  8.10311817903e-02  8.22022663084e-02
       8.34004913967e-02  8.46268878675e-02  8.58825394232e-02  8.71685860891e-02
       8.84862279179e-02  8.98367289899e-02  9.12214217379e-02  9.26417116279e-02
       9.40990822294e-02  9.55951007141e-02  9.71314238267e-02  9.87098043742e-02
       1.00332098288e-01  1.02000272319e-01  1.03716412432e-01  1.05482732973e-01
       1.07301586698e-01  1.09175475763e-01  1.11107063760e-01  1.13099188958e-01
       1.15154878853e-01  1.17277366205e-01  1.19470106734e-01  1.21736798670e-01
       1.24081404414e-01  1.26508174543e-01  1.29021674500e-01  1.31626814292e-01
       1.34328881621e-01  1.37133578915e-01  1.40047064795e-01  1.43076000627e-01
       1.46227602890e-01  1.49509702229e-01  1.52930810211e-01  1.56500194981e-01
       1.60227967241e-01  1.64125178212e-01  1.68203931607e-01  1.72477511980e-01
       1.76960532329e-01  1.81669104410e-01  1.86621035940e-01  1.91836059782e-01
       1.97336101321e-01  2.03145591685e-01  2.09291836235e-01  2.15805450050e-01
       2.22720875073e-01  2.30076997349e-01  2.37917887698e-01  2.46293695651e-01
       2.55261734930e-01  2.64887810143e-01  2.75247849657e-01  2.86429930338e-01
       2.98536808495e-01  3.11689111057e-01  3.26029397081e-01  3.41727379682e-01
       3.58986714553e-01  3.78053932212e-01  3.99230347686e-01  4.22888173580e-01
       4.49492675599e-01  4.79633190252e-01  5.14067435763e-01  5.53786274450e-01
       6.00110855785e-01  6.54842747474e-01  7.20504143675e-01  8.00738214302e-01
       9.01009712949e-01  1.02990611082e+00  1.20173985634e+00  1.44227336796e+00
       1.80303143236e+00  2.40423865599e+00  3.60656595712e+00  7.21335303926e+00
    </PP_RAB>
  </PP_MESH>
  <PP_LOCAL type="real" size="400" columns="4">
    -8.54876315146e+00 -8.54876315146e+00 -8.54876315146e+00 -8.54876315146e+00
    -8.54876315146e+00 -8.54876315146e+00 -8.54876315146e+00 -8.54876315146e+00
    -8.54876315146e+00 -8.54876315146e+00 -8.54876315145e+00 -8.54876315144e+00
    -8.54876315143e+00 -8.54876315139e+00 -8.54876315132e+00 -8.54876315120e+00
    -8.54876315099e+00 -8.54876315063e+00 -8.54876315003e+00 -8.54876314908e+00
    -8.54876314760e+00 -8.54876314533e+00 -8.54876314192e+00 -8.54876313691e+00
    -8.54876312963e+00 -8.54876311924e+00 -8.54876310462e+00 -8.54876308429e+00
    -8.54876305637e+00 -8.54876301845e+00 -8.54876296749e+00 -8.54876289967e+00
    -8.54876281023e+00 -8.54876269331e+00 -8.54876254170e+00 -8.54876234661e+00
    -8.54876209738e+00 -8.54876178119e+00 -8.54876138265e+00 -8.54876088341e+00
    -8.54876026171e+00 -8.54875949184e+00 -8.54875854359e+00 -8.54875738157e+00
    -8.54875596453e+00 -8.54875424456e+00 -8.54875216621e+00 -8.54874966558e+00
    -8.54874666921e+00 -8.54874309298e+00 -8.54873884086e+00 -8.54873380354e+00
    -8.54872785700e+00 -8.54872086085e+00 -8.54871265670e+00 -8.54870306623e+00
    -8.54869188925e+00 -8.54867890155e+00 -8.54866385261e+00 -8.54864646318e+00
    -8.54862642262e+00 -8.54860338618e+00 -8.54857697203e+00 -8.54854675808e+00
    -8.54851227875e+00 -8.54847302136e+00 -8.54842842249e+00 -8.54837786403e+00
    -8.54832066906e+00 -8.54825609756e+00 -8.54818334180e+00 -8.54810152159e+00
    -8.54800967931e+00 -8.54790677468e+00 -8.54779167926e+00 -8.54766317083e+00
    -8.54751992743e+00 -8.54736052120e+00 -8.54718341198e+00 -8.54698694070e+00
    -8.54676932244e+00 -8.54652863934e+00 -8.54626283324e+00 -8.54596969807e+00
    -8.54564687199e+00 -8.54529182934e+00 -8.54490187229e+00 -8.54447412235e+00
    -8.54400551157e+00 -8.54349277357e+00 -8.54293243432e+00 -8.54232080276e+00
    -8.54165396122e+00 -8.54092775559e+00 -8.54013778534e+00 -8.53927939346e+00
    -8.53834765609e+00 -8.53733737212e+00 -8.53624305265e+00 -8.53505891030e+00
    -8.53377884843e+00 -8.53239645039e+00 -8.53090496855e+00 -8.52929731346e+00
    -8.52756604289e+00 -8.52570335101e+00 -8.52370105752e+00 -8.52155059692e+00
    -8.51924300790e+00 -8.51676892287e+00 -8.51411855771e+00 -8.51128170173e+00
    -8.50824770793e+00 -8.50500548358e+00 -8.50154348120e+00 -8.49784968994e+00
    -8.49391162750e+00 -8.48971633251e+00 -8.48525035765e+00 -8.48049976335e+00
    -8.47545011228e+00 -8.47008646468e+00 -8.46439337453e+00 -8.45835488683e+00
    -8.45195453579e+00 -8.44517534432e+00 -8.43799982469e+00 -8.43040998058e+00
    -8.42238731054e+00 -8.41391281306e+00 -8.40496699321e+00 -8.39552987112e+00
    -8.38558099234e+00 -8.37509944009e+00 -8.36406384976e+00 -8.35245242548e+00
    -8.34024295918e+00 -8.32741285197e+00 -8.31393913815e+00 -8.29979851194e+00
    -8.28496735694e+00 -8.26942177858e+00 -8.25313763948e+00 -8.23609059803e+00
    -8.21825615014e+00 -8.19960967428e+00 -8.18012647990e+00 -8.15978185934e+00
    -8.13855114316e+00 -8.11640975907e+00 -8.09333329444e+00 -8.06929756232e+00
    -8.04427867111e+00 -8.01825309772e+00 -7.99119776422e+00 -7.96309011792e+00
    -7.93390821472e+00 -7.90363080563e+00 -7.87223742635e+00 -7.83970848957e+00
    -7.80602537991e+00 -7.77117055113e+00 -7.73512762535e+00 -7.69788149395e+00
    -7.65941841970e+00 -7.61972613977e+00 -7.57879396912e+00 -7.53661290372e+00
    -7.49317572315e+00 -7.44847709191e+00 -7.40251365883e+00 -7.35528415390e+00
    -7.30678948190e+00 -7.25703281197e+00 -7.20601966241e+00 -7.15375798001e+00
    -7.10025821293e+00 -7.04553337648e+00 -6.98959911083e+00 -6.93247372998e+00
    -6.87417826096e+00 -6.81473647264e+00 -6.75417489335e+00 -6.69252281644e+00
    -6.62981229320e+00 -6.56607811249e+00 -6.50135776644e+00 -6.43569140186e+00
    -6.36912175670e+00 -6.30169408166e+00 -6.23345604629e+00 -6.16445762990e+00
    -6.09475099713e+00 -6.02439035844e+00 -5.95343181588e+00 -5.88193319461e+00
    -5.80995386088e+00 -5.73755452722e+00 -5.66479704586e+00 -5.59174419156e+00
    -5.51845943502e+00 -5.44500670840e+00 -5.37145016453e+00 -5.29785393142e+00
    -5.22428186397e+00 -5.15079729472e+00 -5.07746278567e+00 -5.00433988305e+00
    -4.93148887738e+00 -4.85896857046e+00 -4.78683605171e+00 -4.71514648555e+00
    -4.64395291185e+00 -4.57330606110e+00 -4.50325418613e+00 -4.43384291157e+00
    -4.36511510257e+00 -4.29711075364e+00 -4.22986689870e+00 -4.16341754255e+00
    -4.09779361442e+00 -4.03302294351e+00 -3.96913025627e+00 -3.90613719502e+00
    -3.84406235718e+00 -3.78292135399e+00 -3.72272688775e+00 -3.66348884588e+00
    -3.60521441049e+00 -3.54790818140e+00 -3.49157231108e+00 -3.43620664924e+00
    -3.38180889525e+00 -3.32837475635e+00 -3.27589810953e+00 -3.22437116532e+00
    -3.17378463144e+00 -3.12412787467e+00 -3.07538907931e+00 -3.02755540078e+00
    -2.98061311303e+00 -2.93454774881e+00 -2.88934423174e+00 -2.84498699964e+00
    -2.80146011854e+00 -2.75874738705e+00 -2.71683243107e+00 -2.67569878873e+00
    -2.63532998579e+00 -2.59570960193e+00 -2.55682132810e+00 -2.51864901568e+00
    -2.48117671784e+00 -2.44438872382e+00 -2.40826958673e+00 -2.37280414555e+00
    -2.33797754190e+00 -2.30377523235e+00 -2.27018299676e+00 -2.23718694326e+00
    -2.20477351036e+00 -2.17292946679e+00 -2.14164190926e+00 -2.11089825881e+00
    -2.08068625581e+00 -2.05099395412e+00 -2.02180971448e+00 -1.99312219743e+00
    -1.96492035587e+00 -1.93719342749e+00 -1.90993092701e+00 -1.88312263848e+00
    -1.85675860766e+00 -1.83082913439e+00 -1.80532476525e+00 -1.78023628626e+00
    -1.75555471587e+00 -1.73127129802e+00 -1.70737749553e+00 -1.68386498358e+00
    -1.66072564346e+00 -1.63795155646e+00 -1.61553499801e+00 -1.59346843194e+00
    -1.57174450497e+00 -1.55035604137e+00 -1.52929603775e+00 -1.50855765806e+00
    -1.48813422873e+00 -1.46801923393e+00 -1.44820631102e+00 -1.42868924615e+00
    -1.40946196990e+00 -1.39051855321e+00 -1.37185320326e+00 -1.35346025959e+00
    -1.33533419031e+00 -1.31746958839e+00 -1.29986116808e+00 -1.28250376146e+00
    -1.26539231502e+00 -1.24852188641e+00 -1.23188764120e+00 -1.21548484984e+00
    -1.19930888459e+00 -1.18335521660e+00 -1.16761941305e+00 -1.15209713434e+00
    -1.13678413142e+00 -1.12167624307e+00 -1.10676939340e+00 -1.09205958925e+00
    -1.07754291780e+00 -1.06321554408e+00 -1.04907370870e+00 -1.03511372549e+00
    -1.02133197927e+00 -1.00772492364e+00 -9.94289078768e-01 -9.81021029325e-01
    -9.67917422344e-01 -9.54974965171e-01 -9.42190423433e-01 -9.29560619035e-01
    -9.17082428175e-01 -9.04752779387e-01 -8.92568651598e-01 -8.80527072201e-01
    -8.68625115133e-01 -8.56859898970e-01 -8.45228585016e-01 -8.33728375396e-01
    -8.22356511140e-01 -8.11110270262e-01 -7.99986965820e-01 -7.88983943960e-01
    -7.78098581924e-01 -7.67328286043e-01 -7.56670489676e-01 -7.46122651112e-01
    -7.35682251413e-01 -7.25346792199e-01 -7.15113793358e-01 -7.04980790675e-01
    -6.94945333367e-01 -6.85004981507e-01 -6.75157303336e-01 -6.65399872421e-01
    -6.55730264678e-01 -6.46146055200e-01 -6.36644814899e-01 -6.27224106913e-01
    -6.17881482772e-01 -6.08614478260e-01 -5.99420608967e-01 -5.90297365461e-01
    -5.81242208050e-01 -5.72252561055e-01 -5.63325806556e-01 -5.54459277504e-01
    -5.45650250131e-01 -5.36895935544e-01 -5.28193470378e-01 -5.19539906376e-01
    -5.10932198702e-01 -5.02367192814e-01 -4.93841609622e-01 -4.85352028677e-01
    -4.76894869003e-01 -4.68466367175e-01 -4.60062552122e-01 -4.51679216011e-01
    -4.43311880441e-01 -4.34955756973e-01 -4.26605700779e-01 -4.18256155886e-01
    -4.09901090054e-01 -4.01533916798e-01 -3.93147401299e-01 -3.84733545975e-01
    -3.76283450063e-01 -3.67787135679e-01 -3.59233330084e-01 -3.50609189978e-01
    -3.41899947925e-01 -3.33088452484e-01 -3.24154560538e-01 -3.15074319861e-01
    -3.05818847024e-01 -2.96352750720e-01 -2.86631855765e-01 -2.76599811409e-01
    -2.66182841996e-01 -2.55281239342e-01 -2.43754762213e-01 -2.31395673150e-01
    -2.17873840852e-01 -2.02608481838e-01 -1.84397706335e-01 -1.59837039490e-01
  </PP_LOCAL>
  <PP_NONLOCAL>
    <PP_BETA.1 type="real" size="400" columns="4" index="1" angular_momentum="0" cutoff_radius_index="400">
       5.10213219770e-11  1.63249463331e-09  1.23949433631e-08  5.22215020642e-08
       1.59325462307e-07  3.96325298362e-07  8.56289729943e-07  1.66874539582e-06
       3.00563974923e-06  5.08725182744e-06  8.18804368598e-06  1.26424452374e-05
       1.88505654586e-05  2.72838229245e-05  3.84904887787e-05  5.31011353751e-05
       7.18339839689e-05  9.55001449180e-05  1.25008744094e-04  1.61371929325e-04
       2.05709750861e-04  2.59254910112e-04  3.23357370981e-04  3.99488828528e-04
       4.89247029691e-04  5.94359941227e-04  7.16689760172e-04  8.58236762374e-04
       1.02114298499e-03  1.20769573901e-03  1.42033094821e-03  1.66163631120e-03
       1.93435428358e-03  2.24138487731e-03  2.58578827493e-03  2.97078725646e-03
       3.39976943707e-03  3.87628931382e-03  4.40407012040e-03  4.98700548852e-03
       5.62916091539e-03  6.33477503671e-03  7.10826070485e-03  7.95420587214e-03
       8.87737427958e-03  9.88270595101e-03  1.09753174935e-02  1.21605022047e-02
       1.34437299869e-02  1.48306470705e-02  1.63270755455e-02  1.79390127036e-02
       1.96726301907e-02  2.15342729709e-02  2.35304581020e-02  2.56678733240e-02
       2.79533754592e-02  3.03939886246e-02  3.29969022560e-02  3.57694689421e-02
       3.87192020678e-02  4.18537732640e-02  4.51810096610e-02  4.87088909428e-02
       5.24455461970e-02  5.63992505550e-02  6.05784216174e-02  6.49916156555e-02
       6.96475235819e-02  7.45549666800e-02  7.97228920805e-02  8.51603679734e-02
       9.08765785408e-02  9.68808185956e-02  1.03182487907e-01  1.09791085194e-01
       1.16716201772e-01  1.23967514811e-01  1.31554780211e-01  1.39487825031e-01
       1.47776539473e-01  1.56430868371e-01  1.65460802155e-01  1.74876367260e-01
       1.84687615928e-01  1.94904615375e-01  2.05537436267e-01  2.16596140469e-01
       2.28090768006e-01  2.40031323198e-01  2.52427759900e-01  2.65289965799e-01
       2.78627745707e-01  2.92450803787e-01  3.06768724653e-01  3.21590953260e-01
       3.36926773545e-01  3.52785285722e-01  3.69175382174e-01  3.86105721866e-01
       4.03584703201e-01  4.21620435254e-01  4.40220707291e-01  4.59392956526e-01
       4.79144234013e-01  4.99481168614e-01  5.20409928977e-01  5.41936183444e-01
       5.64065057825e-01  5.86801090986e-01  6.10148188181e-01  6.34109572086e-01
       6.58687731488e-01  6.83884367590e-01  7.09700337914e-01  7.36135597773e-01
       7.63189139317e-01  7.90858928159e-01  8.19141837605e-01  8.48033580530e-01
       8.77528638956e-01  9.07620191416e-01  9.38300038209e-01  9.69558524658e-01
       1.00138446255e+00  1.03376504991e+00  1.06668578936e+00  1.10013040525e+00
       1.13408075997e+00  1.16851676952e+00  1.20341631907e+00  1.23875517848e+00
       1.27450691866e+00  1.31064282891e+00  1.34713183597e+00  1.38394042546e+00
       1.42103256607e+00  1.45836963751e+00  1.49591036285e+00  1.53361074599e+00
       1.57142401530e+00  1.60930057426e+00  1.64718796006e+00  1.68503081127e+00
       1.72277084562e+00  1.76034684908e+00  1.79769467729e+00  1.83474727076e+00
       1.87143468485e+00  1.90768413604e+00  1.94342006562e+00  1.97856422208e+00
       2.01303576367e+00  2.04675138216e+00  2.07962544923e+00  2.11157018654e+00
       2.14249586069e+00  2.17231100404e+00  2.20092266230e+00  2.22823666982e+00
       2.25415795298e+00  2.27859086234e+00  2.30143953374e+00  2.32260827832e+00
       2.34200200131e+00  2.35952664902e+00  2.37508968316e+00  2.38860058144e+00
       2.39997136271e+00  2.40911713494e+00  2.41595666346e+00  2.42041295691e+00
       2.42241386752e+00  2.42189270208e+00  2.41878883949e+00  2.41304835037e+00
       2.40462461340e+00  2.39347892329e+00  2.37958108402e+00  2.36290998153e+00
       2.34345412869e+00  2.32121217615e+00  2.29619338134e+00  2.26841802881e+00