<UPF version="2.0.1">
  <PP_INFO>
Converted from CP2K GTH format
       <PP_INPUTFILE>
Mg 
    4    6    0    0
    0.19275787000000       2  -20.57539077000000    3.04016732000000
       2
    0.14140682000000       1   41.04729209000000
    0.10293187000000       1   -9.98562566000000
       </PP_INPUTFILE>
  </PP_INFO>
  <PP_HEADER
    generated="Generated in analytical, separable form"
    author="Goedecker/Hartwigsen/Hutter/Teter"
    date="Phys.Rev.B58, 3641 (1998); B54, 1703 (1996)"
    comment="This file generated by CP2K ATOM code"
    element="Mg"
    pseudo_type="NC"
    relativistic="scalar"
    is_ultrasoft="F"
    is_paw="F"
    is_coulomb="F"
    has_so="F"
    has_wfc="T"
    has_gipaw="F"
    paw_as_gipaw="F"
    core_correction="F"
    functional="PBE"
    z_valence="10.0000000000"
    total_psenergy="-126.4676900000"
    wfc_cutoff="0.0000000000"
    rho_cutoff="0.0000000000"
    l_max="1"
    l_max_rho="0"
    l_local="-3"
    mesh_size="400"
    number_of_wfc="3"
    number_of_proj="2"/>
  <PP_MESH dx="1.0000000000000000e+00" mesh="400" xmin="1.0000000000000000e+00" rmax="3.7538232999999998e+01" zmesh="1.2000000000000000e+01">
    <PP_R type="real" size="400" columns="4">
       7.22853190584e-12  2.31286432529e-10  1.75607452138e-09  7.39856944537e-09
       2.25727037849e-08  5.61500555707e-08  1.21316292751e-07  2.36422320493e-07
       4.25829084447e-07  7.20744989012e-07  1.16005490915e-06  1.79113976717e-06
       2.67068567771e-06  3.86548166306e-06  5.45320496294e-06  7.52319298002e-06
       1.01772009232e-05  1.35301442221e-05  1.77108248203e-05  2.28626404723e-05
       2.91442761927e-05  3.67303770427e-05  4.58122014526e-05  5.65982543296e-05
       6.93148992117e-05  8.42069487776e-05  1.01538233049e-04  1.21592144665e-04
       1.44672160631e-04  1.71102340018e-04  2.01227797072e-04  2.35415149303e-04
       2.74052940106e-04  3.17552035547e-04  3.66345994967e-04  4.20891415136e-04
       4.81668247687e-04  5.49180089643e-04  6.23954446896e-04  7.06542970501e-04
       7.97521665771e-04  8.97491074118e-04  1.00707642770e-03  1.12692777695e-03
       1.25772009112e-03  1.40015333198e-03  1.55495250098e-03  1.72286765998e-03
       1.90467392601e-03  2.10117144037e-03  2.31318531236e-03  2.54156553820e-03
       2.78718689553e-03  3.05094881400e-03  3.33377522260e-03  3.63661437407e-03
       3.96043864728e-03  4.30624432799e-03  4.67505136882e-03  5.06790312903e-03
       5.48586609482e-03  5.93002958103e-03  6.40150541486e-03  6.90142760243e-03
       7.43095197903e-03  7.99125584389e-03  8.58353758021e-03  9.20901626139e-03
       9.86893124424e-03  1.05645417501e-02  1.12971264349e-02  1.20679829481e-02
       1.28784274833e-02  1.37297943191e-02  1.46234353530e-02  1.55607196278e-02
       1.65430328521e-02  1.75717769162e-02  1.86483694024e-02  1.97742430934e-02
       2.09508454764e-02  2.21796382464e-02  2.34620968078e-02  2.47997097761e-02
       2.61939784799e-02  2.76464164637e-02  2.91585489930e-02  3.07319125619e-02
       3.23680544040e-02  3.40685320070e-02  3.58349126321e-02  3.76687728386e-02
       3.95716980139e-02  4.15452819102e-02  4.35911261879e-02  4.57108399664e-02
       4.79060393828e-02  5.01783471587e-02  5.25293921763e-02  5.49608090629e-02
       5.74742377858e-02  6.00713232566e-02  6.27537149461e-02  6.55230665091e-02
       6.83810354214e-02  7.13292826268e-02  7.43694721957e-02  7.75032709962e-02
       8.07323483757e-02  8.40583758557e-02  8.74830268379e-02  9.10079763235e-02
       9.46349006441e-02  9.83654772053e-02  1.02201384244e-01  1.06144300596e-01
       1.10195905480e-01  1.14357878290e-01  1.18631898405e-01  1.23019645005e-01
       1.27522796911e-01  1.32143032424e-01  1.36882029186e-01  1.41741464052e-01
       1.46723012974e-01  1.51828350893e-01  1.57059151655e-01  1.62417087924e-01
       1.67903831121e-01  1.73521051369e-01  1.79270417446e-01  1.85153596759e-01
       1.91172255326e-01  1.97328057764e-01  2.03622667296e-01  2.10057745770e-01
       2.16634953680e-01  2.23355950208e-01  2.30222393274e-01  2.37235939592e-01
       2.44398244747e-01  2.51710963269e-01  2.59175748728e-01  2.66794253839e-01
       2.74568130569e-01  2.82499030260e-01  2.90588603761e-01  2.98838501574e-01
       3.07250373996e-01  3.15825871286e-01  3.24566643833e-01  3.33474342335e-01
       3.42550617983e-01  3.51797122663e-01  3.61215509160e-01  3.70807431370e-01
       3.80574544524e-01  3.90518505419e-01  4.00640972657e-01  4.10943606896e-01
       4.21428071099e-01  4.32096030808e-01  4.42949154406e-01  4.53989113405e-01
       4.65217582730e-01  4.76636241017e-01  4.88246770917e-01  5.00050859406e-01
       5.12050198107e-01  5.24246483615e-01  5.36641417835e-01  5.49236708323e-01
       5.62034068637e-01  5.75035218695e-01  5.88241885146e-01  6.01655801736e-01
       6.15278709697e-01  6.29112358134e-01  6.43158504427e-01  6.57418914630e-01
       6.71895363892e-01  6.86589636877e-01  7.01503528194e-01  7.16638842840e-01
       7.31997396644e-01  7.47581016724e-01  7.63391541957e-01  7.79430823446e-01
       7.95700725012e-01  8.12203123679e-01  8.28939910182e-01  8.45912989478e-01
       8.63124281265e-01  8.80575720517e-01  8.98269258026e-01  9.16206860955e-01
       9.34390513401e-01  9.52822216969e-01  9.71503991362e-01  9.90437874975e-01
       1.00962592551e+00  1.02907022059e+00  1.04877285840e+00  1.06873595834e+00
       1.08896166167e+00  1.10945213221e+00  1.13020955700e+00  1.15123614703e+00
       1.17253413794e+00  1.19410579078e+00  1.21595339271e+00  1.23807925785e+00
       1.26048572797e+00  1.28317517335e+00  1.30614999360e+00  1.32941261848e+00
       1.35296550876e+00  1.37681115710e+00  1.40095208896e+00  1.42539086350e+00
       1.45013007454e+00  1.47517235154e+00  1.50052036053e+00  1.52617680519e+00
       1.55214442785e+00  1.57842601057e+00  1.60502437624e+00  1.63194238966e+00
       1.65918295875e+00  1.68674903569e+00  1.71464361814e+00  1.74286975047e+00
       1.77143052508e+00  1.80032908367e+00  1.82956861859e+00  1.85915237427e+00
       1.88908364858e+00  1.91936579436e+00  1.95000222087e+00  1.98099639540e+00
       2.01235184480e+00  2.04407215718e+00  2.07616098357e+00  2.10862203968e+00
       2.14145910766e+00  2.17467603802e+00  2.20827675146e+00  2.24226524089e+00
       2.27664557341e+00  2.31142189244e+00  2.34659841990e+00  2.38217945835e+00
       2.41816939337e+00  2.45457269592e+00  2.49139392475e+00  2.52863772900e+00
       2.56630885075e+00  2.60441212779e+00  2.64295249638e+00  2.68193499418e+00
       2.72136476318e+00  2.76124705291e+00  2.80158722354e+00  2.84239074930e+00
       2.88366322184e+00  2.92541035387e+00  2.96763798281e+00  3.01035207467e+00
       3.05355872799e+00  3.09726417797e+00  3.14147480079e+00  3.18619711802e+00
       3.23143780123e+00  3.27720367684e+00  3.32350173102e+00  3.37033911495e+00
       3.41772315014e+00  3.46566133409e+00  3.51416134605e+00  3.56323105315e+00
       3.61287851667e+00  3.66311199862e+00  3.71393996861e+00  3.76537111099e+00
       3.81741433227e+00  3.87007876892e+00  3.92337379544e+00  3.97730903285e+00
       4.03189435749e+00  4.08713991025e+00  4.14305610626e+00  4.19965364490e+00
       4.25694352037e+00  4.31493703276e+00  4.37364579952e+00  4.43308176763e+00
       4.49325722620e+00  4.55418481982e+00  4.61587756241e+00  4.67834885190e+00
       4.74161248552e+00  4.80568267591e+00  4.87057406808e+00  4.93630175712e+00
       5.00288130699e+00  5.07032877013e+00  5.13866070824e+00  5.20789421408e+00
       5.27804693449e+00  5.34913709465e+00  5.42118352367e+00  5.49420568167e+00
       5.56822368827e+00  5.64325835285e+00  5.71933120643e+00  5.79646453548e+00
       5.87468141775e+00  5.95400576017e+00  6.03446233910e+00  6.11607684305e+00
       6.19887591802e+00  6.28288721572e+00  6.36813944483e+00  6.45466242560e+00
       6.54248714801e+00  6.63164583376e+00  6.72217200241e+00  6.81410054208e+00
       6.90746778497e+00  7.00231158817e+00  7.09867142021e+00  7.19658845383e+00
       7.29610566552e+00  7.39726794245e+00  7.50012219742e+00  7.60471749259e+00
       7.71110517277e+00  7.81933900930e+00  7.92947535534e+00  8.04157331379e+00
       8.15569491921e+00  8.27190533484e+00  8.39027306665e+00  8.51087019584e+00
       8.63377263206e+00  8.75906038931e+00  8.88681788726e+00  9.01713428073e+00
       9.15010382043e+00  9.28582624889e+00  9.42440723554e+00  9.56595885564e+00
       9.71060011879e+00  9.85845755290e+00  1.00096658511e+01  1.01643685896e+01
       1.03227190264e+01  1.04848809919e+01  1.06510298839e+01  1.08213537828e+01
       1.09960547046e+01  1.11753500125e+01  1.13594740119e+01  1.15486797575e+01
       1.17432411096e+01  1.19434550779e+01  1.21496445077e+01  1.23621611644e+01
       1.25813892956e+01  1.28077497563e+01  1.30417048124e+01  1.32837637582e+01
       1.35344895202e+01  1.37945064614e+01  1.40645096609e+01  1.43452760122e+01
       1.46376775900e+01  1.49426978619e+01  1.52614515069e+01  1.55952088472e+01
       1.59454262445e+01  1.63137843006e+01  1.67022363949e+01  1.71130711103e+01
       1.75489936059e+01  1.80132332876e+01  1.85096886807e+01  1.90431260874e+01
       1.96194579189e+01  2.02461424280e+01  2.09327744956e+01  2.16919887596e+01
       2.25408969076e+01  2.35034897804e+01  2.46149037070e+01  2.59296118995e+01
       2.75388728474e+01  2.96137651572e+01  3.25383656839e+01  3.75382328098e+01
    </PP_R>
    <PP_RAB type="real" size="400" columns="4">
       3.61412465855e-11  5.78188964494e-10  2.92648282218e-09  9.24648195069e-09
       2.25661064928e-08  4.67720198933e-08  8.66048561826e-08  1.47653397850e-07
       2.36347711306e-07  3.59951248387e-07  5.26551923849e-07  7.45052180357e-07
       1.02515805405e-06  1.37736725537e-06  1.81295628150e-06  2.34396657848e-06
       2.98318977251e-06  3.74415199212e-06  4.64109730401e-06  5.68897028740e-06
       6.90339777347e-06  8.30066977780e-06  9.89771965563e-06  1.17121035113e-05
       1.37619788945e-05  1.60660828183e-05  1.86437091343e-05  2.15146853016e-05
       2.46993485900e-05  2.82185217549e-05  3.20934882265e-05  3.63459668547e-05
       4.09980862524e-05  4.60723587821e-05  5.15916542287e-05  5.75791732062e-05
       6.40584203412e-05  7.10531772822e-05  7.85874755801e-05  8.66855694856e-05
       9.53719087129e-05  1.04671111214e-04  1.14607936011e-04  1.25207256136e-04
       1.36494031713e-04  1.48493283248e-04  1.61230065148e-04  1.74729439530e-04
       1.89016450357e-04  2.04116097938e-04  2.20053313843e-04  2.36852936265e-04
       2.54539685870e-04  2.73138142168e-04  2.92672720446e-04  3.13167649293e-04
       3.34646948751e-04  3.57134409115e-04  3.80653570425e-04  4.05227702659e-04
       4.30879786667e-04  4.57632495857e-04  4.85508178657e-04  5.14528841780e-04
       5.44716134295e-04  5.76091332528e-04  6.08675325798e-04  6.42488603009e-04
       6.77551240098e-04  7.13882888342e-04  7.51502763545e-04  7.90429636085e-04
       8.30681821840e-04  8.72277173981e-04  9.15233075636e-04  9.59566433411e-04
       1.00529367177e-03  1.05243072828e-03  1.10099304962e-03  1.15099558855e-03
       1.20245280156e-03  1.25537864739e-03  1.30978658629e-03  1.36568958013e-03
       1.42310009316e-03  1.48203009352e-03  1.54249105553e-03  1.60449396261e-03
       1.66804931085e-03  1.73316711327e-03  1.79985690471e-03  1.86812774726e-03
       1.93798823631e-03  2.00944650717e-03  2.08251024216e-03  2.15718667826e-03
       2.23348261517e-03  2.31140442393e-03  2.39095805584e-03  2.47214905185e-03
       2.55498255237e-03  2.63946330735e-03  2.72559568672e-03  2.81338369116e-03
       2.90283096313e-03  2.99394079816e-03  3.08671615638e-03  3.18115967427e-03
       3.27727367655e-03  3.37506018837e-03  3.47452094746e-03  3.57565741662e-03
       3.67847079612e-03  3.78296203635e-03  3.88913185047e-03  3.99698072711e-03
       4.10650894313e-03  4.21771657643e-03  4.33060351870e-03  4.44516948823e-03
       4.56141404268e-03  4.67933659180e-03  4.79893641013e-03  4.92021264962e-03
       5.04316435224e-03  5.16779046239e-03  5.29408983939e-03  5.42206126976e-03
       5.55170347939e-03  5.68301514572e-03  5.81599490964e-03  5.95064138743e-03
       6.08695318243e-03  6.22492889668e-03  6.36456714239e-03  6.50586655324e-03
       6.64882579562e-03  6.79344357961e-03  6.93971866996e-03  7.08764989676e-03
       7.23723616609e-03  7.38847647051e-03  7.54136989931e-03  7.69591564869e-03
       7.85211303184e-03  8.00996148875e-03  8.16946059599e-03  8.33061007627e-03
       8.49340980796e-03  8.65785983438e-03  8.82396037303e-03  8.99171182463e-03
       9.16111478213e-03  9.33217003952e-03  9.50487860054e-03  9.67924168738e-03
       9.85526074909e-03  1.00329374701e-02  1.02122737786e-02  1.03932718546e-02
       1.05759341383e-02  1.07602633380e-02  1.09462624384e-02  1.11339347085e-02
       1.13232837093e-02  1.15143133018e-02  1.17070276553e-02  1.19014312544e-02
       1.20975289074e-02  1.22953257540e-02  1.24948272730e-02  1.26960392898e-02
       1.28989679849e-02  1.31036199010e-02  1.33100019513e-02  1.35181214271e-02
       1.37279860059e-02  1.39396037594e-02  1.41529831613e-02  1.43681330957e-02
       1.45850628651e-02  1.48037821990e-02  1.50243012616e-02  1.52466306612e-02
       1.54707814582e-02  1.56967651740e-02  1.59245938001e-02  1.61542798069e-02
       1.63858361531e-02  1.66192762949e-02  1.68546141958e-02  1.70918643364e-02
       1.73310417239e-02  1.75721619032e-02  1.78152409666e-02  1.80602955647e-02
       1.83073429176e-02  1.85564008260e-02  1.88074876825e-02  1.90606224840e-02
       1.93158248431e-02  1.95731150013e-02  1.98325138416e-02  2.00940429014e-02
       2.03577243866e-02  2.06235811853e-02  2.08916368820e-02  2.11619157732e-02
       2.14344428818e-02  2.17092439735e-02  2.19863455727e-02  2.22657749796e-02
       2.25475602874e-02  2.28317304000e-02  2.31183150508e-02  2.34073448215e-02
       2.36988511620e-02  2.39928664106e-02  2.42894238152e-02  2.45885575550e-02
       2.48903027631e-02  2.51946955496e-02  2.55017730261e-02  2.58115733300e-02
       2.61241356509e-02  2.64395002570e-02  2.67577085230e-02  2.70788029585e-02
       2.74028272380e-02  2.77298262314e-02  2.80598460359e-02  2.83929340093e-02
       2.87291388041e-02  2.90685104029e-02  2.94111001556e-02  2.97569608172e-02
       3.01061465878e-02  3.04587131537e-02  3.08147177300e-02  3.11742191050e-02
       3.15372776865e-02  3.19039555494e-02  3.22743164852e-02  3.26484260542e-02
       3.30263516388e-02  3.34081624992e-02  3.37939298318e-02  3.41837268292e-02
       3.45776287430e-02  3.49757129491e-02  3.53780590159e-02  3.57847487745e-02
       3.61958663928e-02  3.66114984521e-02  3.70317340266e-02  3.74566647672e-02
       3.78863849879e-02  3.83209917562e-02  3.87605849875e-02  3.92052675434e-02
       3.96551453346e-02  4.01103274272e-02  4.05709261555e-02  4.10370572379e-02
       4.15088398991e-02  4.19863969978e-02  4.24698551591e-02  4.29593449144e-02
       4.34550008465e-02  4.39569617420e-02  4.44653707506e-02  4.49803755518e-02
       4.55021285297e-02  4.60307869559e-02  4.65665131809e-02  4.71094748354e-02
       4.76598450408e-02  4.82178026302e-02  4.87835323804e-02  4.93572252552e-02
       4.99390786613e-02  5.05292967168e-02  5.11280905335e-02  5.17356785135e-02
       5.23522866620e-02  5.29781489152e-02  5.36135074867e-02  5.42586132312e-02
       5.49137260290e-02  5.55791151901e-02  5.62550598814e-02  5.69418495762e-02
       5.76397845305e-02  5.83491762843e-02  5.90703481923e-02  5.98036359845e-02
       6.05493883598e-02  6.13079676134e-02  6.20797503018e-02  6.28651279469e-02
       6.36645077828e-02  6.44783135474e-02  6.53069863229e-02  6.61509854281e-02
       6.70107893669e-02  6.78868968360e-02  6.87798277976e-02  6.96901246213e-02
       7.06183532999e-02  7.15651047463e-02  7.25309961761e-02  7.35166725840e-02
       7.45228083204e-02  7.55501087773e-02  7.65993121914e-02  7.76711915748e-02
       7.87665567834e-02  7.98862567351e-02  8.10311817903e-02  8.22022663084e-02
       8.34004913967e-02  8.46268878675e-02  8.58825394232e-02  8.71685860891e-02
       8.84862279179e-02  8.98367289899e-02  9.12214217379e-02  9.26417116279e-02
       9.40990822294e-02  9.55951007141e-02  9.71314238267e-02  9.87098043742e-02
       1.00332098288e-01  1.02000272319e-01  1.03716412432e-01  1.05482732973e-01
       1.07301586698e-01  1.09175475763e-01  1.11107063760e-01  1.13099188958e-01
       1.15154878853e-01  1.17277366205e-01  1.19470106734e-01  1.21736798670e-01
       1.24081404414e-01  1.26508174543e-01  1.29021674500e-01  1.31626814292e-01
       1.34328881621e-01  1.37133578915e-01  1.40047064795e-01  1.43076000627e-01
       1.46227602890e-01  1.49509702229e-01  1.52930810211e-01  1.56500194981e-01
       1.60227967241e-01  1.64125178212e-01  1.68203931607e-01  1.72477511980e-01
       1.76960532329e-01  1.81669104410e-01  1.86621035940e-01  1.91836059782e-01
       1.97336101321e-01  2.03145591685e-01  2.09291836235e-01  2.15805450050e-01
       2.22720875073e-01  2.30076997349e-01  2.37917887698e-01  2.46293695651e-01
       2.55261734930e-01  2.64887810143e-01  2.75247849657e-01  2.86429930338e-01
       2.98536808495e-01  3.11689111057e-01  3.26029397081e-01  3.41727379682e-01
       3.58986714553e-01  3.78053932212e-01  3.99230347686e-01  4.22888173580e-01
       4.49492675599e-01  4.79633190252e-01  5.14067435763e-01  5.53786274450e-01
       6.00110855785e-01  6.54842747474e-01  7.20504143675e-01  8.00738214302e-01
       9.01009712949e-01  1.02990611082e+00  1.20173985634e+00  1.44227336796e+00
       1.80303143236e+00  2.40423865599e+00  3.60656595712e+00  7.21335303926e+00
    </PP_RAB>
  </PP_MESH>
  <PP_LOCAL type="real" size="400" columns="4">
    -1.23936979665e+02 -1.23936979665e+02 -1.23936979665e+02 -1.23936979665e+02
    -1.23936979665e+02 -1.23936979665e+02 -1.23936979665e+02 -1.23936979665e+02
    -1.23936979665e+02 -1.23936979665e+02 -1.23936979664e+02 -1.23936979662e+02
    -1.23936979658e+02 -1.23936979649e+02 -1.23936979633e+02 -1.23936979604e+02
    -1.23936979553e+02 -1.23936979466e+02 -1.23936979324e+02 -1.23936979096e+02
    -1.23936978741e+02 -1.23936978197e+02 -1.23936977380e+02 -1.23936976178e+02
    -1.23936974434e+02 -1.23936971945e+02 -1.23936968440e+02 -1.23936963569e+02
    -1.23936956878e+02 -1.23936947791e+02 -1.23936935579e+02 -1.23936919326e+02
    -1.23936897894e+02 -1.23936869876e+02 -1.23936833544e+02 -1.23936786793e+02
    -1.23936727069e+02 -1.23936651298e+02 -1.23936555793e+02 -1.23936436156e+02
    -1.23936287174e+02 -1.23936102687e+02 -1.23935875452e+02 -1.23935596992e+02
    -1.23935257423e+02 -1.23934845262e+02 -1.23934347227e+02 -1.23933748002e+02
    -1.23933029988e+02 -1.23932173033e+02 -1.23931154127e+02 -1.23929947088e+02
    -1.23928522200e+02 -1.23926845842e+02 -1.23924880072e+02 -1.23922582189e+02
    -1.23919904254e+02 -1.23916792588e+02 -1.23913187220e+02 -1.23909021313e+02
    -1.23904220539e+02 -1.23898702426e+02 -1.23892375656e+02 -1.23885139326e+02
    -1.23876882168e+02 -1.23867481722e+02 -1.23856803473e+02 -1.23844699934e+02
    -1.23831009699e+02 -1.23815556436e+02 -1.23798147851e+02 -1.23778574603e+02
    -1.23756609176e+02 -1.23732004713e+02 -1.23704493814e+02 -1.23673787290e+02
    -1.23639572894e+02 -1.23601514010e+02 -1.23559248331e+02 -1.23512386497e+02
    -1.23460510739e+02 -1.23403173493e+02 -1.23339896026e+02 -1.23270167068e+02
    -1.23193441450e+02 -1.23109138782e+02 -1.23016642161e+02 -1.22915296938e+02
    -1.22804409549e+02 -1.22683246433e+02 -1.22551033054e+02 -1.22406953042e+02
    -1.22250147485e+02 -1.22079714391e+02 -1.21894708340e+02 -1.21694140365e+02
    -1.21476978085e+02 -1.21242146132e+02 -1.20988526881e+02 -1.20714961560e+02
    -1.20420251735e+02 -1.20103161239e+02 -1.19762418575e+02 -1.19396719831e+02
    -1.19004732155e+02 -1.18585097832e+02 -1.18136438997e+02 -1.17657363032e+02
    -1.17146468684e+02 -1.16602352924e+02 -1.16023618605e+02 -1.15408882911e+02
    -1.14756786644e+02 -1.14066004329e+02 -1.13335255170e+02 -1.12563314808e+02
    -1.11749027884e+02 -1.10891321348e+02 -1.09989218468e+02 -1.09041853451e+02
    -1.08048486578e+02 -1.07008519746e+02 -1.05921512257e+02 -1.04787196690e+02
    -1.03605494665e+02 -1.02376532278e+02 -1.01100654952e+02 -9.97784414544e+01
    -9.84107167608e+01 -9.69985634834e+01 -9.55433315140e+01 -9.40466455554e+01
    -9.25104101958e+01 -9.09368121875e+01 -8.93283196003e+01 -8.76876775433e+01
    -8.60179001781e+01 -8.43222587901e+01 -8.26042657381e+01 -8.08676541715e+01
    -7.91163534786e+01 -7.73544605256e+01 -7.55862068409e+01 -7.38159220106e+01
    -7.20479936664e+01 -7.02868245639e+01 -6.85367873664e+01 -6.68021778648e+01
    -6.50871674639e+01 -6.33957558584e+01 -6.17317248886e+01 -6.00985946142e+01
    -5.84995826598e+01 -5.69375678688e+01 -5.54150592525e+01 -5.39341711292e+01
    -5.24966052204e+01 -5.11036403080e+01 -4.97561298579e+01 -4.84545077904e+01
    -4.71988023342e+01 -4.59886576424e+01 -4.48233625945e+01 -4.37018859624e+01
    -4.26229168954e+01 -4.15849094941e+01 -4.05861300989e+01 -3.96247058319e+01
    -3.86986729062e+01 -3.78060232485e+01 -3.69447480870e+01 -3.61128773119e+01
    -3.53085136285e+01 -3.45298607759e+01 -3.37752453627e+01 -3.30431321592e+01
    -3.23321329746e+01 -3.16410095080e+01 -3.09686707933e+01 -3.03141660366e+01
    -2.96766737738e+01 -2.90554883372e+01 -2.84500046317e+01 -2.78597021656e+01
    -2.72841291900e+01 -2.67228876625e+01 -2.61756195958e+01 -2.56419951826e+01
    -2.51217029214e+01 -2.46144418118e+01 -2.41199155605e+01 -2.36378286286e+01
    -2.31678838820e+01 -2.27097815612e+01 -2.22632192715e+01 -2.18278927040e+01
    -2.14034968241e+01 -2.09897273046e+01 -2.05862820232e+01 -2.01928624926e+01
    -1.98091751353e+01 -1.94349323516e+01 -1.90698533615e+01 -1.87136648229e+01
    -1.83661012455e+01 -1.80269052273e+01 -1.76958275448e+01 -1.73726271288e+01
    -1.70570709544e+01 -1.67489338696e+01 -1.64479983822e+01 -1.61540544232e+01
    -1.58668990946e+01 -1.55863364138e+01 -1.53121770581e+01 -1.50442381142e+01
    -1.47823428339e+01 -1.45263203990e+01 -1.42760056938e+01 -1.40312390879e+01
    -1.37918662269e+01 -1.35577378325e+01 -1.33287095104e+01 -1.31046415671e+01
    -1.28853988335e+01 -1.26708504967e+01 -1.24608699382e+01 -1.22553345796e+01
    -1.20541257337e+01 -1.18571284624e+01 -1.16642314405e+01 -1.14753268249e+01
    -1.12903101289e+01 -1.11090801017e+01 -1.09315386134e+01 -1.07575905433e+01
    -1.05871436741e+01 -1.04201085894e+01 -1.02563985753e+01 -1.00959295264e+01
    -9.93861985501e+00 -9.78439040409e+00 -9.63316436358e+00 -9.48486718989e+00
    -9.33942652859e+00 -9.19677213999e+00 -9.05683582764e+00 -8.91955136944e+00
    -8.78485445150e+00 -8.65268260432e+00 -8.52297514155e+00 -8.39567310091e+00
    -8.27071918734e+00 -8.14805771825e+00 -8.02763457087e+00 -7.90939713136e+00
    -7.79329424599e+00 -7.67927617391e+00 -7.56729454175e+00 -7.45730229981e+00
    -7.34925367984e+00 -7.24310415431e+00 -7.13881039716e+00 -7.03633024592e+00
    -6.93562266513e+00 -6.83664771117e+00 -6.73936649815e+00 -6.64374116512e+00
    -6.54973484436e+00 -6.45731163078e+00 -6.36643655234e+00 -6.27707554153e+00
    -6.18919540781e+00 -6.10276381092e+00 -6.01774923519e+00 -5.93412096466e+00
    -5.85184905897e+00 -5.77090433023e+00 -5.69125832041e+00 -5.61288327971e+00
    -5.53575214548e+00 -5.45983852188e+00 -5.38511666022e+00 -5.31156143989e+00
    -5.23914834995e+00 -5.16785347126e+00 -5.09765345918e+00 -5.02852552688e+00
    -4.96044742910e+00 -4.89339744642e+00 -4.82735437007e+00 -4.76229748715e+00
    -4.69820656635e+00 -4.63506184404e+00 -4.57284401087e+00 -4.51153419863e+00
    -4.45111396770e+00 -4.39156529462e+00 -4.33287056028e+00 -4.27501253821e+00
    -4.21797438342e+00 -4.16173962135e+00 -4.10629213732e+00 -4.05161616612e+00
    -3.99769628195e+00 -3.94451738866e+00 -3.89206471015e+00 -3.84032378114e+00
    -3.78928043805e+00 -3.73892081024e+00 -3.68923131133e+00 -3.64019863085e+00
    -3.59180972599e+00 -3.54405181359e+00 -3.49691236233e+00 -3.45037908497e+00
    -3.40443993092e+00 -3.35908307879e+00 -3.31429692923e+00 -3.27007009775e+00
    -3.22639140781e+00 -3.18324988390e+00 -3.14063474478e+00 -3.09853539678e+00
    -3.05694142725e+00 -3.01584259796e+00 -2.97522883866e+00 -2.93509024067e+00
    -2.89541705044e+00 -2.85619966323e+00 -2.81742861672e+00 -2.77909458465e+00
    -2.74118837047e+00 -2.70370090087e+00 -2.66662321940e+00 -2.62994647987e+00
    -2.59366193975e+00 -2.55776095348e+00 -2.52223496559e+00 -2.48707550371e+00
    -2.45227417138e+00 -2.41782264066e+00 -2.38371264453e+00 -2.34993596892e+00
    -2.31648444456e+00 -2.28334993836e+00 -2.25052434445e+00 -2.21799957474e+00
    -2.18576754893e+00 -2.15382018400e+00 -2.12214938300e+00 -2.09074702304e+00
    -2.05960494257e+00 -2.02871492753e+00 -1.99806869656e+00 -1.96765788487e+00
    -1.93747402683e+00 -1.90750853685e+00 -1.87775268852e+00 -1.84819759168e+00
    -1.81883416710e+00 -1.78965311848e+00 -1.76064490126e+00 -1.73179968792e+00
    -1.70310732901e+00 -1.67455730938e+00 -1.64613869874e+00 -1.61784009559e+00
    -1.58964956334e+00 -1.56155455725e+00 -1.53354184041e+00 -1.50559738670e+00
    -1.47770626814e+00 -1.44985252324e+00 -1.42201900260e+00 -1.39418718629e+00
    -1.36633696685e+00 -1.33844638933e+00 -1.31049133767e+00 -1.28244515325e+00
    -1.25427816688e+00 -1.22595711893e+00 -1.19744443361e+00 -1.16869729993e+00
    -1.13966649308e+00 -1.11029484161e+00 -1.08051520179e+00 -1.05024773287e+00
    -1.01939615675e+00 -9.87842502400e-01 -9.55439519218e-01 -9.21999371363e-01
    -8.87276139987e-01 -8.50937464475e-01 -8.12515874043e-01 -7.71318910499e-01
    -7.26246136173e-01 -6.75361606126e-01 -6.14659021116e-01 -5.32790131633e-01
  </PP_LOCAL>
  <PP_NONLOCAL>
    <PP_BETA.1 type="real" size="400" columns="4" index="1" angular_momentum="0" cutoff_radius_index="400">
       4.08429489625e-10  1.30682413560e-08  9.92224465290e-08  4.18037020779e-07
       1.27541221460e-06  3.17261358709e-06  6.85466318432e-06  1.33584314149e-05
       2.40603704726e-05  4.07238304877e-05  6.55459006940e-05  1.01203717494e-04
       1.50900183095e-04  2.18409038346e-04  3.08119234610e-04  4.25078550507e-04
       5.75036400509e-04  7.64485782985e-04  1.00070431724e-03  1.29179431995e-03
       1.64672187286e-03  2.07535483534e-03  2.58849975620e-03  3.19793764197e-03
       3.91645853903e-03  4.75789488959e-03  5.73715362270e-03  6.87024694296e-03
       8.17432178136e-03  9.66768787346e-03  1.13698444318e-02  1.33015053800e-02
       1.54846231168e-02  1.79424107778e-02  2.06993629640e-02  2.37812749028e-02
       2.72152600088e-02  3.10297658059e-02  3.52545881723e-02  3.99208838625e-02
       4.50611812570e-02  5.07093892823e-02  5.69008044348e-02  6.36721158328e-02
       7.10614082062e-02  7.91081627199e-02  8.78532555100e-02  9.73389537889e-02
       1.07608909355e-01  1.18708149312e-01  1.30683063780e-01  1.43581390333e-01
       1.57452194866e-01  1.72345848571e-01  1.88314000594e-01  2.05409545974e-01
       2.23686588335e-01  2.43200396766e-01  2.64007356271e-01  2.86164911048e-01
       3.09731499821e-01  3.34766482325e-01  3.61330055965e-01  3.89483161551e-01
       4.19287376931e-01  4.50804797193e-01  4.84097900005e-01  5.19229394545e-01
       5.56262052317e-01  5.95258518035e-01  6.36281098621e-01  6.79391528216e-01
       7.24650706973e-01  7.72118411278e-01  8.21852972914e-01  8.73910924568e-01
       9.28346608981e-01  9.85211748974e-01  1.04455497549e+00  1.10642131083e+00
       1.17085160413e+00  1.23788191645e+00  1.30754285253e+00  1.37985883691e+00
       1.45484733193e+00  1.53251799580e+00  1.61287177901e+00  1.69589995822e+00
       1.78158310712e+00  1.86989000475e+00  1.96077648264e+00  2.05418421324e+00
       2.15003944344e+00  2.24825167843e+00  2.34871232303e+00  2.45129328927e+00
       2.55584558158e+00  2.66219787296e+00  2.77015508850e+00  2.87949701532e+00
       2.98997696122e+00  3.10132048755e+00  3.21322424548e+00  3.32535494821e+00
       3.43734851554e+00  3.54880943067e+00  3.65931035276e+00  3.76839203191e+00
       3.87556357623e+00  3.98030312290e+00  4.08205896677e+00  4.18025120075e+00
       4.27427392166e+00  4.36349805339e+00  4.44727483555e+00  4.52494002045e+00
       4.59581881334e+00  4.65923158106e+00  4.71450034129e+00  4.76095602937e+00
       4.79794652109e+00  4.82484536902e+00  4.84106118570e+00  4.84604758092e+00
       4.83931353149e+00  4.82043403236e+00  4.78906084671e+00  4.74493314247e+00
       4.68788777345e+00  4.61786893700e+00  4.53493691818e+00  4.43927561409e+00
       4.33119852420e+00  4.21115289331e+00  4.07972170617e+00  3.93762325779e+00
       3.78570806182e+00  3.62495291219e+00  3.45645198045e+00  3.28140491199e+00
       3.10110197706e+00  2.91690643535e+00  2.73023438155e+00  2.54253245050e+00
       2.35525386826e+00  2.16983343517e+00  1.98766211120e+00  1.81006193836e+00
       1.63826207230e+00  1.47337670198e+00  1.31638560819e+00  1.16811804712e+00
       1.02924054448e+00  9.00249051294e-01  7.81465749328e-01  6.73040609966e-01
       5.74957613638e-01  4.87045339478e-01  4.08991447575e-01  3.40360411065e-01
       2.80613722858e-01  2.29131710892e-01  1.85236052526e-01  1.48212085933e-01
       1.17330073171e-01  9.18646715548e-02  7.11120090393e-02  5.44039249145e-02
       4.11191168095e-02  3.06911156582e-02  2.26131793686e-02  1.64403424991e-02
       1.17889749313e-02  8.33428215976e-03  5.80622168726e-03  3.98431573755e-03
       2.69181457835e-03  1.78961381570e-03  1.17026095100e-03  7.52309455260e-04
       4.75200230527e-04  2.94776982118e-04  1.79478431832e-04  1.07199332257e-04
       6.27749850078e-05  3.60199941736e-05  2.02397403911e-05  1.11302835952e-05
       5.98655570087e-06  3.14731720940e-06  1.61626820740e-06  8.10225525149e-07
       3.96206344456e-07  1.88867195073e-07  8.77002500739e-08  3.96402871851e-08
       1.74276807255e-08  7.44692523398e-09  3.09036059052e-09  1.24448169125e-09