<UPF version="2.0.1">
  <PP_INFO>
Converted from CP2K GTH format
       <PP_INPUTFILE>
N 
    2    3    0    0
    0.28379051000000       2  -12.41522559000000    1.86809592000000
       1
    0.25540500000000       1   13.63026257000000
       </PP_INPUTFILE>
  </PP_INFO>
  <PP_HEADER
    generated="Generated in analytical, separable form"
    author="Goedecker/Hartwigsen/Hutter/Teter"
    date="Phys.Rev.B58, 3641 (1998); B54, 1703 (1996)"
    comment="This file generated by CP2K ATOM code"
    element="N"
    pseudo_type="NC"
    relativistic="scalar"
    is_ultrasoft="F"
    is_paw="F"
    is_coulomb="F"
    has_so="F"
    has_wfc="T"
    has_gipaw="F"
    paw_as_gipaw="F"
    core_correction="F"
    functional="PBE"
    z_valence="5.0000000000"
    total_psenergy="-19.2941130000"
    wfc_cutoff="0.0000000000"
    rho_cutoff="0.0000000000"
    l_max="1"
    l_max_rho="0"
    l_local="-3"
    mesh_size="400"
    number_of_wfc="2"
    number_of_proj="1"/>
  <PP_MESH dx="1.0000000000000000e+00" mesh="400" xmin="1.0000000000000000e+00" rmax="3.7538232999999998e+01" zmesh="7.0000000000000000e+00">
    <PP_R type="real" size="400" columns="4">
       7.22853190584e-12  2.31286432529e-10  1.75607452138e-09  7.39856944537e-09
       2.25727037849e-08  5.61500555707e-08  1.21316292751e-07  2.36422320493e-07
       4.25829084447e-07  7.20744989012e-07  1.16005490915e-06  1.79113976717e-06
       2.67068567771e-06  3.86548166306e-06  5.45320496294e-06  7.52319298002e-06
       1.01772009232e-05  1.35301442221e-05  1.77108248203e-05  2.28626404723e-05
       2.91442761927e-05  3.67303770427e-05  4.58122014526e-05  5.65982543296e-05
       6.93148992117e-05  8.42069487776e-05  1.01538233049e-04  1.21592144665e-04
       1.44672160631e-04  1.71102340018e-04  2.01227797072e-04  2.35415149303e-04
       2.74052940106e-04  3.17552035547e-04  3.66345994967e-04  4.20891415136e-04
       4.81668247687e-04  5.49180089643e-04  6.23954446896e-04  7.06542970501e-04
       7.97521665771e-04  8.97491074118e-04  1.00707642770e-03  1.12692777695e-03
       1.25772009112e-03  1.40015333198e-03  1.55495250098e-03  1.72286765998e-03
       1.90467392601e-03  2.10117144037e-03  2.31318531236e-03  2.54156553820e-03
       2.78718689553e-03  3.05094881400e-03  3.33377522260e-03  3.63661437407e-03
       3.96043864728e-03  4.30624432799e-03  4.67505136882e-03  5.06790312903e-03
       5.48586609482e-03  5.93002958103e-03  6.40150541486e-03  6.90142760243e-03
       7.43095197903e-03  7.99125584389e-03  8.58353758021e-03  9.20901626139e-03
       9.86893124424e-03  1.05645417501e-02  1.12971264349e-02  1.20679829481e-02
       1.28784274833e-02  1.37297943191e-02  1.46234353530e-02  1.55607196278e-02
       1.65430328521e-02  1.75717769162e-02  1.86483694024e-02  1.97742430934e-02
       2.09508454764e-02  2.21796382464e-02  2.34620968078e-02  2.47997097761e-02
       2.61939784799e-02  2.76464164637e-02  2.91585489930e-02  3.07319125619e-02
       3.23680544040e-02  3.40685320070e-02  3.58349126321e-02  3.76687728386e-02
       3.95716980139e-02  4.15452819102e-02  4.35911261879e-02  4.57108399664e-02
       4.79060393828e-02  5.01783471587e-02  5.25293921763e-02  5.49608090629e-02
       5.74742377858e-02  6.00713232566e-02  6.27537149461e-02  6.55230665091e-02
       6.83810354214e-02  7.13292826268e-02  7.43694721957e-02  7.75032709962e-02
       8.07323483757e-02  8.40583758557e-02  8.74830268379e-02  9.10079763235e-02
       9.46349006441e-02  9.83654772053e-02  1.02201384244e-01  1.06144300596e-01
       1.10195905480e-01  1.14357878290e-01  1.18631898405e-01  1.23019645005e-01
       1.27522796911e-01  1.32143032424e-01  1.36882029186e-01  1.41741464052e-01
       1.46723012974e-01  1.51828350893e-01  1.57059151655e-01  1.62417087924e-01
       1.67903831121e-01  1.73521051369e-01  1.79270417446e-01  1.85153596759e-01
       1.91172255326e-01  1.97328057764e-01  2.03622667296e-01  2.10057745770e-01
       2.16634953680e-01  2.23355950208e-01  2.30222393274e-01  2.37235939592e-01
       2.44398244747e-01  2.51710963269e-01  2.59175748728e-01  2.66794253839e-01
       2.74568130569e-01  2.82499030260e-01  2.90588603761e-01  2.98838501574e-01
       3.07250373996e-01  3.15825871286e-01  3.24566643833e-01  3.33474342335e-01
       3.42550617983e-01  3.51797122663e-01  3.61215509160e-01  3.70807431370e-01
       3.80574544524e-01  3.90518505419e-01  4.00640972657e-01  4.10943606896e-01
       4.21428071099e-01  4.32096030808e-01  4.42949154406e-01  4.53989113405e-01
       4.65217582730e-01  4.76636241017e-01  4.88246770917e-01  5.00050859406e-01
       5.12050198107e-01  5.24246483615e-01  5.36641417835e-01  5.49236708323e-01
       5.62034068637e-01  5.75035218695e-01  5.88241885146e-01  6.01655801736e-01
       6.15278709697e-01  6.29112358134e-01  6.43158504427e-01  6.57418914630e-01
       6.71895363892e-01  6.86589636877e-01  7.01503528194e-01  7.16638842840e-01
       7.31997396644e-01  7.47581016724e-01  7.63391541957e-01  7.79430823446e-01
       7.95700725012e-01  8.12203123679e-01  8.28939910182e-01  8.45912989478e-01
       8.63124281265e-01  8.80575720517e-01  8.98269258026e-01  9.16206860955e-01
       9.34390513401e-01  9.52822216969e-01  9.71503991362e-01  9.90437874975e-01
       1.00962592551e+00  1.02907022059e+00  1.04877285840e+00  1.06873595834e+00
       1.08896166167e+00  1.10945213221e+00  1.13020955700e+00  1.15123614703e+00
       1.17253413794e+00  1.19410579078e+00  1.21595339271e+00  1.23807925785e+00
       1.26048572797e+00  1.28317517335e+00  1.30614999360e+00  1.32941261848e+00
       1.35296550876e+00  1.37681115710e+00  1.40095208896e+00  1.42539086350e+00
       1.45013007454e+00  1.47517235154e+00  1.50052036053e+00  1.52617680519e+00
       1.55214442785e+00  1.57842601057e+00  1.60502437624e+00  1.63194238966e+00
       1.65918295875e+00  1.68674903569e+00  1.71464361814e+00  1.74286975047e+00
       1.77143052508e+00  1.80032908367e+00  1.82956861859e+00  1.85915237427e+00
       1.88908364858e+00  1.91936579436e+00  1.95000222087e+00  1.98099639540e+00
       2.01235184480e+00  2.04407215718e+00  2.07616098357e+00  2.10862203968e+00
       2.14145910766e+00  2.17467603802e+00  2.20827675146e+00  2.24226524089e+00
       2.27664557341e+00  2.31142189244e+00  2.34659841990e+00  2.38217945835e+00
       2.41816939337e+00  2.45457269592e+00  2.49139392475e+00  2.52863772900e+00
       2.56630885075e+00  2.60441212779e+00  2.64295249638e+00  2.68193499418e+00
       2.72136476318e+00  2.76124705291e+00  2.80158722354e+00  2.84239074930e+00
       2.88366322184e+00  2.92541035387e+00  2.96763798281e+00  3.01035207467e+00
       3.05355872799e+00  3.09726417797e+00  3.14147480079e+00  3.18619711802e+00
       3.23143780123e+00  3.27720367684e+00  3.32350173102e+00  3.37033911495e+00
       3.41772315014e+00  3.46566133409e+00  3.51416134605e+00  3.56323105315e+00
       3.61287851667e+00  3.66311199862e+00  3.71393996861e+00  3.76537111099e+00
       3.81741433227e+00  3.87007876892e+00  3.92337379544e+00  3.97730903285e+00
       4.03189435749e+00  4.08713991025e+00  4.14305610626e+00  4.19965364490e+00
       4.25694352037e+00  4.31493703276e+00  4.37364579952e+00  4.43308176763e+00
       4.49325722620e+00  4.55418481982e+00  4.61587756241e+00  4.67834885190e+00
       4.74161248552e+00  4.80568267591e+00  4.87057406808e+00  4.93630175712e+00
       5.00288130699e+00  5.07032877013e+00  5.13866070824e+00  5.20789421408e+00
       5.27804693449e+00  5.34913709465e+00  5.42118352367e+00  5.49420568167e+00
       5.56822368827e+00  5.64325835285e+00  5.71933120643e+00  5.79646453548e+00
       5.87468141775e+00  5.95400576017e+00  6.03446233910e+00  6.11607684305e+00
       6.19887591802e+00  6.28288721572e+00  6.36813944483e+00  6.45466242560e+00
       6.54248714801e+00  6.63164583376e+00  6.72217200241e+00  6.81410054208e+00
       6.90746778497e+00  7.00231158817e+00  7.09867142021e+00  7.19658845383e+00
       7.29610566552e+00  7.39726794245e+00  7.50012219742e+00  7.60471749259e+00
       7.71110517277e+00  7.81933900930e+00  7.92947535534e+00  8.04157331379e+00
       8.15569491921e+00  8.27190533484e+00  8.39027306665e+00  8.51087019584e+00
       8.63377263206e+00  8.75906038931e+00  8.88681788726e+00  9.01713428073e+00
       9.15010382043e+00  9.28582624889e+00  9.42440723554e+00  9.56595885564e+00
       9.71060011879e+00  9.85845755290e+00  1.00096658511e+01  1.01643685896e+01
       1.03227190264e+01  1.04848809919e+01  1.06510298839e+01  1.08213537828e+01
       1.09960547046e+01  1.11753500125e+01  1.13594740119e+01  1.15486797575e+01
       1.17432411096e+01  1.19434550779e+01  1.21496445077e+01  1.23621611644e+01
       1.25813892956e+01  1.28077497563e+01  1.30417048124e+01  1.32837637582e+01
       1.35344895202e+01  1.37945064614e+01  1.40645096609e+01  1.43452760122e+01
       1.46376775900e+01  1.49426978619e+01  1.52614515069e+01  1.55952088472e+01
       1.59454262445e+01  1.63137843006e+01  1.67022363949e+01  1.71130711103e+01
       1.75489936059e+01  1.80132332876e+01  1.85096886807e+01  1.90431260874e+01
       1.96194579189e+01  2.02461424280e+01  2.09327744956e+01  2.16919887596e+01
       2.25408969076e+01  2.35034897804e+01  2.46149037070e+01  2.59296118995e+01
       2.75388728474e+01  2.96137651572e+01  3.25383656839e+01  3.75382328098e+01
    </PP_R>
    <PP_RAB type="real" size="400" columns="4">
       3.61412465855e-11  5.78188964494e-10  2.92648282218e-09  9.24648195069e-09
       2.25661064928e-08  4.67720198933e-08  8.66048561826e-08  1.47653397850e-07
       2.36347711306e-07  3.59951248387e-07  5.26551923849e-07  7.45052180357e-07
       1.02515805405e-06  1.37736725537e-06  1.81295628150e-06  2.34396657848e-06
       2.98318977251e-06  3.74415199212e-06  4.64109730401e-06  5.68897028740e-06
       6.90339777347e-06  8.30066977780e-06  9.89771965563e-06  1.17121035113e-05
       1.37619788945e-05  1.60660828183e-05  1.86437091343e-05  2.15146853016e-05
       2.46993485900e-05  2.82185217549e-05  3.20934882265e-05  3.63459668547e-05
       4.09980862524e-05  4.60723587821e-05  5.15916542287e-05  5.75791732062e-05
       6.40584203412e-05  7.10531772822e-05  7.85874755801e-05  8.66855694856e-05
       9.53719087129e-05  1.04671111214e-04  1.14607936011e-04  1.25207256136e-04
       1.36494031713e-04  1.48493283248e-04  1.61230065148e-04  1.74729439530e-04
       1.89016450357e-04  2.04116097938e-04  2.20053313843e-04  2.36852936265e-04
       2.54539685870e-04  2.73138142168e-04  2.92672720446e-04  3.13167649293e-04
       3.34646948751e-04  3.57134409115e-04  3.80653570425e-04  4.05227702659e-04
       4.30879786667e-04  4.57632495857e-04  4.85508178657e-04  5.14528841780e-04
       5.44716134295e-04  5.76091332528e-04  6.08675325798e-04  6.42488603009e-04
       6.77551240098e-04  7.13882888342e-04  7.51502763545e-04  7.90429636085e-04
       8.30681821840e-04  8.72277173981e-04  9.15233075636e-04  9.59566433411e-04
       1.00529367177e-03  1.05243072828e-03  1.10099304962e-03  1.15099558855e-03
       1.20245280156e-03  1.25537864739e-03  1.30978658629e-03  1.36568958013e-03
       1.42310009316e-03  1.48203009352e-03  1.54249105553e-03  1.60449396261e-03
       1.66804931085e-03  1.73316711327e-03  1.79985690471e-03  1.86812774726e-03
       1.93798823631e-03  2.00944650717e-03  2.08251024216e-03  2.15718667826e-03
       2.23348261517e-03  2.31140442393e-03  2.39095805584e-03  2.47214905185e-03
       2.55498255237e-03  2.63946330735e-03  2.72559568672e-03  2.81338369116e-03
       2.90283096313e-03  2.99394079816e-03  3.08671615638e-03  3.18115967427e-03
       3.27727367655e-03  3.37506018837e-03  3.47452094746e-03  3.57565741662e-03
       3.67847079612e-03  3.78296203635e-03  3.88913185047e-03  3.99698072711e-03
       4.10650894313e-03  4.21771657643e-03  4.33060351870e-03  4.44516948823e-03
       4.56141404268e-03  4.67933659180e-03  4.79893641013e-03  4.92021264962e-03
       5.04316435224e-03  5.16779046239e-03  5.29408983939e-03  5.42206126976e-03
       5.55170347939e-03  5.68301514572e-03  5.81599490964e-03  5.95064138743e-03
       6.08695318243e-03  6.22492889668e-03  6.36456714239e-03  6.50586655324e-03
       6.64882579562e-03  6.79344357961e-03  6.93971866996e-03  7.08764989676e-03
       7.23723616609e-03  7.38847647051e-03  7.54136989931e-03  7.69591564869e-03
       7.85211303184e-03  8.00996148875e-03  8.16946059599e-03  8.33061007627e-03
       8.49340980796e-03  8.65785983438e-03  8.82396037303e-03  8.99171182463e-03
       9.16111478213e-03  9.33217003952e-03  9.50487860054e-03  9.67924168738e-03
       9.85526074909e-03  1.00329374701e-02  1.02122737786e-02  1.03932718546e-02
       1.05759341383e-02  1.07602633380e-02  1.09462624384e-02  1.11339347085e-02
       1.13232837093e-02  1.15143133018e-02  1.17070276553e-02  1.19014312544e-02
       1.20975289074e-02  1.22953257540e-02  1.24948272730e-02  1.26960392898e-02
       1.28989679849e-02  1.31036199010e-02  1.33100019513e-02  1.35181214271e-02
       1.37279860059e-02  1.39396037594e-02  1.41529831613e-02  1.43681330957e-02
       1.45850628651e-02  1.48037821990e-02  1.50243012616e-02  1.52466306612e-02
       1.54707814582e-02  1.56967651740e-02  1.59245938001e-02  1.61542798069e-02
       1.63858361531e-02  1.66192762949e-02  1.68546141958e-02  1.70918643364e-02
       1.73310417239e-02  1.75721619032e-02  1.78152409666e-02  1.80602955647e-02
       1.83073429176e-02  1.85564008260e-02  1.88074876825e-02  1.90606224840e-02
       1.93158248431e-02  1.95731150013e-02  1.98325138416e-02  2.00940429014e-02
       2.03577243866e-02  2.06235811853e-02  2.08916368820e-02  2.11619157732e-02
       2.14344428818e-02  2.17092439735e-02  2.19863455727e-02  2.22657749796e-02
       2.25475602874e-02  2.28317304000e-02  2.31183150508e-02  2.34073448215e-02
       2.36988511620e-02  2.39928664106e-02  2.42894238152e-02  2.45885575550e-02
       2.48903027631e-02  2.51946955496e-02  2.55017730261e-02  2.58115733300e-02
       2.61241356509e-02  2.64395002570e-02  2.67577085230e-02  2.70788029585e-02
       2.74028272380e-02  2.77298262314e-02  2.80598460359e-02  2.83929340093e-02
       2.87291388041e-02  2.90685104029e-02  2.94111001556e-02  2.97569608172e-02
       3.01061465878e-02  3.04587131537e-02  3.08147177300e-02  3.11742191050e-02
       3.15372776865e-02  3.19039555494e-02  3.22743164852e-02  3.26484260542e-02
       3.30263516388e-02  3.34081624992e-02  3.37939298318e-02  3.41837268292e-02
       3.45776287430e-02  3.49757129491e-02  3.53780590159e-02  3.57847487745e-02
       3.61958663928e-02  3.66114984521e-02  3.70317340266e-02  3.74566647672e-02
       3.78863849879e-02  3.83209917562e-02  3.87605849875e-02  3.92052675434e-02
       3.96551453346e-02  4.01103274272e-02  4.05709261555e-02  4.10370572379e-02
       4.15088398991e-02  4.19863969978e-02  4.24698551591e-02  4.29593449144e-02
       4.34550008465e-02  4.39569617420e-02  4.44653707506e-02  4.49803755518e-02
       4.55021285297e-02  4.60307869559e-02  4.65665131809e-02  4.71094748354e-02
       4.76598450408e-02  4.82178026302e-02  4.87835323804e-02  4.93572252552e-02
       4.99390786613e-02  5.05292967168e-02  5.11280905335e-02  5.17356785135e-02
       5.23522866620e-02  5.29781489152e-02  5.36135074867e-02  5.42586132312e-02
       5.49137260290e-02  5.55791151901e-02  5.62550598814e-02  5.69418495762e-02
       5.76397845305e-02  5.83491762843e-02  5.90703481923e-02  5.98036359845e-02
       6.05493883598e-02  6.13079676134e-02  6.20797503018e-02  6.28651279469e-02
       6.36645077828e-02  6.44783135474e-02  6.53069863229e-02  6.61509854281e-02
       6.70107893669e-02  6.78868968360e-02  6.87798277976e-02  6.96901246213e-02
       7.06183532999e-02  7.15651047463e-02  7.25309961761e-02  7.35166725840e-02
       7.45228083204e-02  7.55501087773e-02  7.65993121914e-02  7.76711915748e-02
       7.87665567834e-02  7.98862567351e-02  8.10311817903e-02  8.22022663084e-02
       8.34004913967e-02  8.46268878675e-02  8.58825394232e-02  8.71685860891e-02
       8.84862279179e-02  8.98367289899e-02  9.12214217379e-02  9.26417116279e-02
       9.40990822294e-02  9.55951007141e-02  9.71314238267e-02  9.87098043742e-02
       1.00332098288e-01  1.02000272319e-01  1.03716412432e-01  1.05482732973e-01
       1.07301586698e-01  1.09175475763e-01  1.11107063760e-01  1.13099188958e-01
       1.15154878853e-01  1.17277366205e-01  1.19470106734e-01  1.21736798670e-01
       1.24081404414e-01  1.26508174543e-01  1.29021674500e-01  1.31626814292e-01
       1.34328881621e-01  1.37133578915e-01  1.40047064795e-01  1.43076000627e-01
       1.46227602890e-01  1.49509702229e-01  1.52930810211e-01  1.56500194981e-01
       1.60227967241e-01  1.64125178212e-01  1.68203931607e-01  1.72477511980e-01
       1.76960532329e-01  1.81669104410e-01  1.86621035940e-01  1.91836059782e-01
       1.97336101321e-01  2.03145591685e-01  2.09291836235e-01  2.15805450050e-01
       2.22720875073e-01  2.30076997349e-01  2.37917887698e-01  2.46293695651e-01
       2.55261734930e-01  2.64887810143e-01  2.75247849657e-01  2.86429930338e-01
       2.98536808495e-01  3.11689111057e-01  3.26029397081e-01  3.41727379682e-01
       3.58986714553e-01  3.78053932212e-01  3.99230347686e-01  4.22888173580e-01
       4.49492675599e-01  4.79633190252e-01  5.14067435763e-01  5.53786274450e-01
       6.00110855785e-01  6.54842747474e-01  7.20504143675e-01  8.00738214302e-01
       9.01009712949e-01  1.02990611082e+00  1.20173985634e+00  1.44227336796e+00
       1.80303143236e+00  2.40423865599e+00  3.60656595712e+00  7.21335303926e+00
    </PP_RAB>
  </PP_MESH>
  <PP_LOCAL type="real" size="400" columns="4">
    -5.29457169372e+01 -5.29457169372e+01 -5.29457169372e+01 -5.29457169372e+01
    -5.29457169372e+01 -5.29457169372e+01 -5.29457169372e+01 -5.29457169372e+01
    -5.29457169372e+01 -5.29457169371e+01 -5.29457169369e+01 -5.29457169364e+01
    -5.29457169354e+01 -5.29457169334e+01 -5.29457169295e+01 -5.29457169226e+01
    -5.29457169104e+01 -5.29457168899e+01 -5.29457168561e+01 -5.29457168020e+01
    -5.29457167175e+01 -5.29457165882e+01 -5.29457163942e+01 -5.29457161084e+01
    -5.29457156942e+01 -5.29457151026e+01 -5.29457142697e+01 -5.29457131120e+01
    -5.29457115220e+01 -5.29457093627e+01 -5.29457064606e+01 -5.29457025984e+01
    -5.29456975054e+01 -5.29456908471e+01 -5.29456822133e+01 -5.29456711035e+01
    -5.29456569110e+01 -5.29456389049e+01 -5.29456162091e+01 -5.29455877790e+01
    -5.29455523752e+01 -5.29455085339e+01 -5.29454545341e+01 -5.29453883612e+01
    -5.29453076659e+01 -5.29452097201e+01 -5.29450913667e+01 -5.29449489658e+01
    -5.29447783351e+01 -5.29445746848e+01 -5.29443325468e+01 -5.29440456975e+01
    -5.29437070746e+01 -5.29433086861e+01 -5.29428415131e+01 -5.29422954046e+01
    -5.29416589643e+01 -5.29409194292e+01 -5.29400625404e+01 -5.29390724037e+01
    -5.29379313421e+01 -5.29366197385e+01 -5.29351158683e+01 -5.29333957223e+01
    -5.29314328194e+01 -5.29291980079e+01 -5.29266592570e+01 -5.29237814368e+01
    -5.29205260869e+01 -5.29168511746e+01 -5.29127108402e+01 -5.29080551329e+01
    -5.29028297331e+01 -5.28969756647e+01 -5.28904289959e+01 -5.28831205281e+01
    -5.28749754751e+01 -5.28659131304e+01 -5.28558465255e+01 -5.28446820774e+01
    -5.28323192282e+01 -5.28186500752e+01 -5.28035589946e+01 -5.27869222574e+01
    -5.27686076409e+01 -5.27484740361e+01 -5.27263710515e+01 -5.27021386172e+01
    -5.26756065893e+01 -5.26465943570e+01 -5.26149104560e+01 -5.25803521893e+01
    -5.25427052590e+01 -5.25017434121e+01 -5.24572281044e+01 -5.24089081852e+01
    -5.23565196078e+01 -5.22997851705e+01 -5.22384142923e+01 -5.21721028294e+01
    -5.21005329369e+01 -5.20233729846e+01 -5.19402775298e+01 -5.18508873571e+01
    -5.17548295914e+01 -5.16517178915e+01 -5.15411527333e+01 -5.14227217915e+01
    -5.12960004268e+01 -5.11605522909e+01 -5.10159300552e+01 -5.08616762760e+01
    -5.06973244039e+01 -5.05223999482e+01 -5.03364218047e+01 -5.01389037580e+01
    -4.99293561655e+01 -4.97072878328e+01 -4.94722080873e+01 -4.92236290572e+01
    -4.89610681608e+01 -4.86840508114e+01 -4.83921133380e+01 -4.80848061244e+01
    -4.77616969633e+01 -4.74223746204e+01 -4.70664526024e+01 -4.66935731163e+01
    -4.63034112065e+01 -4.58956790494e+01 -4.54701303852e+01 -4.50265650556e+01
    -4.45648336184e+01 -4.40848419980e+01 -4.35865561319e+01 -4.30700065612e+01
    -4.25352929147e+01 -4.19825882247e+01 -4.14121430120e+01 -4.08242890691e+01
    -4.02194428710e+01 -3.95981085336e+01 -3.89608802424e+01 -3.83084440691e+01
    -3.76415790946e+01 -3.69611577574e+01 -3.62681453489e+01 -3.55635985831e+01
    -3.48486631715e+01 -3.41245703451e+01 -3.33926322764e+01 -3.26542363639e+01
    -3.19108383628e+01 -3.11639543566e+01 -3.04151515898e+01 -2.96660382012e+01
    -2.89182519190e+01 -2.81734478088e+01 -2.74332851846e+01 -2.66994138247e+01
    -2.59734596552e+01 -2.52570100903e+01 -2.45515992408e+01 -2.38586932193e+01
    -2.31796757899e+01 -2.25158346162e+01 -2.18683483725e+01 -2.12382749777e+01
    -2.06265412069e+01 -2.00339339202e+01 -1.94610931258e+01 -1.89085070657e+01
    -1.83765094743e+01 -1.78652791189e+01 -1.73748416792e+01 -1.69050739713e+01
    -1.64557104643e+01 -1.60263519783e+01 -1.56164763962e+01 -1.52254511660e+01
    -1.48525473199e+01 -1.44969546925e+01 -1.41577979873e+01 -1.38341533132e+01
    -1.35250648041e+01 -1.32295609303e+01 -1.29466701283e+01 -1.26754353971e+01
    -1.24149275505e+01 -1.21642568624e+01 -1.19225828990e+01 -1.16891223983e+01
    -1.14631551215e+01 -1.12440276734e+01 -1.10311553515e+01 -1.08240221478e+01
    -1.06221790790e+01 -1.04252410650e+01 -1.02328826076e+01 -1.00448325418e+01
    -9.86086813797e+00 -9.68080882809e+00 -9.50450981432e+00 -9.33185578927e+00
    -9.16275496626e+00 -8.99713357776e+00 -8.83493095950e+00 -8.67609529593e+00
    -8.52058006310e+00 -8.36834116984e+00 -8.21933476704e+00 -8.07351567166e+00
    -7.93083633386e+00 -7.79124626568e+00 -7.65469184458e+00 -7.52111640657e+00
    -7.39046054849e+00 -7.26266256779e+00 -7.13765897857e+00 -7.01538505436e+00
    -6.89577535968e+00 -6.77876424336e+00 -6.66428627644e+00 -6.55227662549e+00
    -6.44267135872e+00 -6.33540768716e+00 -6.23042414601e+00 -6.12766072382e+00
    -6.02705894722e+00 -5.92856192964e+00 -5.83211439145e+00 -5.73766265841e+00
    -5.64515464403e+00 -5.55453982068e+00 -5.46576918297e+00 -5.37879520640e+00
    -5.29357180331e+00 -5.21005427758e+00 -5.12819927914e+00 -5.04796475906e+00
    -4.96930992553e+00 -4.89219520113e+00 -4.81658218137e+00 -4.74243359476e+00
    -4.66971326421e+00 -4.59838606996e+00 -4.52841791380e+00 -4.45977568472e+00
    -4.39242722575e+00 -4.32634130216e+00 -4.26148757078e+00 -4.19783655046e+00
    -4.13535959367e+00 -4.07402885913e+00 -4.01381728543e+00 -3.95469856568e+00
    -3.89664712300e+00 -3.83963808696e+00 -3.78364727087e+00 -3.72865114991e+00
    -3.67462683992e+00 -3.62155207716e+00 -3.56940519858e+00 -3.51816512296e+00
    -3.46781133257e+00 -3.41832385559e+00 -3.36968324907e+00 -3.32187058256e+00
    -3.27486742218e+00 -3.22865581539e+00 -3.18321827617e+00 -3.13853777077e+00
    -3.09459770390e+00 -3.05138190546e+00 -3.00887461760e+00 -2.96706048233e+00
    -2.92592452949e+00 -2.88545216511e+00 -2.84562916021e+00 -2.80644163986e+00
    -2.76787607274e+00 -2.72991926094e+00 -2.69255833011e+00 -2.65578071995e+00
    -2.61957417498e+00 -2.58392673563e+00 -2.54882672959e+00 -2.51426276344e+00
    -2.48022371455e+00 -2.44669872321e+00 -2.41367718503e+00 -2.38114874358e+00
    -2.34910328317e+00 -2.31753092202e+00 -2.28642200543e+00 -2.25576709932e+00
    -2.22555698385e+00 -2.19578264731e+00 -2.16643528014e+00 -2.13750626911e+00
    -2.10898719171e+00 -2.08086981068e+00 -2.05314606866e+00 -2.02580808306e+00
    -1.99884814098e+00 -1.97225869433e+00 -1.94603235508e+00 -1.92016189057e+00
    -1.89464021903e+00 -1.86946040512e+00 -1.84461565566e+00 -1.82009931542e+00
    -1.79590486299e+00 -1.77202590680e+00 -1.74845618116e+00 -1.72518954249e+00
    -1.70221996546e+00 -1.67954153939e+00 -1.65714846461e+00 -1.63503504888e+00
    -1.61319570391e+00 -1.59162494195e+00 -1.57031737239e+00 -1.54926769839e+00
    -1.52847071362e+00 -1.50792129898e+00 -1.48761441933e+00 -1.46754512034e+00
    -1.44770852522e+00 -1.42809983162e+00 -1.40871430836e+00 -1.38954729233e+00
    -1.37059418523e+00 -1.35185045044e+00 -1.33331160970e+00 -1.31497323993e+00
    -1.29683096987e+00 -1.27888047674e+00 -1.26111748279e+00 -1.24353775185e+00
    -1.22613708569e+00 -1.20891132033e+00 -1.19185632226e+00 -1.17496798446e+00
    -1.15824222228e+00 -1.14167496918e+00 -1.12526217223e+00 -1.10899978737e+00
    -1.09288377446e+00 -1.07691009200e+00 -1.06107469150e+00 -1.04537351152e+00
    -1.02980247129e+00 -1.01435746377e+00 -9.99034348278e-01 -9.83828942436e-01
    -9.68737013416e-01 -9.53754268425e-01 -9.38876344260e-01 -9.24098795840e-01
    -9.09417083551e-01 -8.94826559239e-01 -8.80322450631e-01 -8.65899843960e-01
    -8.51553664504e-01 -8.37278654689e-01 -8.23069349371e-01 -8.08920047796e-01
    -7.94824781671e-01 -7.80777278624e-01 -7.66770920203e-01 -7.52798693352e-01
    -7.38853134069e-01 -7.24926261621e-01 -7.11009501298e-01 -6.97093593143e-01
    -6.83168483424e-01 -6.69223194664e-01 -6.55245668832e-01 -6.41222576625e-01
    -6.27139083438e-01 -6.12978559464e-01 -5.98722216807e-01 -5.84348649963e-01
    -5.69833246542e-01 -5.55147420807e-01 -5.40257600896e-01 -5.25123866435e-01
    -5.09698078374e-01 -4.93921251200e-01 -4.77719759609e-01 -4.60999685681e-01
    -4.43638069993e-01 -4.25468732237e-01 -4.06257937021e-01 -3.85659455249e-01
    -3.63123068087e-01 -3.37680803063e-01 -3.07329510558e-01 -2.66395065817e-01
  </PP_LOCAL>
  <PP_NONLOCAL>
    <PP_BETA.1 type="real" size="400" columns="4" index="1" angular_momentum="0" cutoff_radius_index="400">
       1.68259088849e-10  5.38367194161e-09  4.08762806566e-08  1.72217065634e-07
       5.25426548734e-07  1.30700912885e-06  2.82388860516e-06  5.50322039770e-06
       9.91205609766e-06  1.67768361160e-05  2.70026866546e-05  4.16924970581e-05
       6.21657543417e-05  8.99771116718e-05  1.26934668079e-04  1.75117937085e-04
       2.36895482418e-04  3.14942199227e-04  4.12256220029e-04  5.32175425003e-04
       6.78393536792e-04  8.54975780821e-04  1.06637409241e-03  1.31744185322e-03
       1.61344813960e-03  1.96009146678e-03  2.36351301324e-03  2.83030931045e-03
       3.36754438405e-03  3.98276133328e-03  4.68399333622e-03  5.47977406927e-03
       6.37914753005e-03  7.39167725352e-03  8.52745491183e-03  9.79710828928e-03
       1.12118086239e-02  1.27832773079e-02  1.45237919393e-02  1.64461917177e-02
       1.85638821769e-02  2.08908392463e-02  2.34416126347e-02  2.62313285263e-02
       2.92756915815e-02  3.25909862301e-02  3.61940772477e-02  4.01024095985e-02
       4.43340075310e-02  4.89074729061e-02  5.38419827367e-02  5.91572859126e-02
       6.48736990810e-02  7.10121016465e-02  7.75939298522e-02  8.46411698926e-02
       9.21763500061e-02  1.00222531484e-01  1.08803298526e-01  1.17942746866e-01
       1.27665471063e-01  1.37996550384e-01  1.48961533124e-01  1.60586419280e-01
       1.72897641394e-01  1.85922043440e-01  1.99686857563e-01  2.14219678479e-01
       2.29548435332e-01  2.45701360765e-01  2.62706956968e-01  2.80593958416e-01
       2.99391291003e-01  3.19128027260e-01  3.39833337296e-01  3.61536435110e-01
       3.84266519862e-01  4.08052711697e-01  4.32923981656e-01  4.58909075223e-01
       4.86036428990e-01  5.14334079926e-01  5.43829566710e-01  5.74549822544e-01
       6.06521058873e-01  6.39768639403e-01  6.74316943801e-01  7.10189220443e-01
       7.47407427594e-01  7.85992062372e-01  8.25961976886e-01  8.67334180948e-01
       9.10123630752e-01  9.54343003011e-01  1.00000245402e+00  1.04710936322e+00
       1.09566806093e+00  1.14567953988e+00  1.19714115051e+00  1.25004627988e+00
       1.30438401442e+00  1.36013878672e+00  1.41729000683e+00  1.47581167899e+00
       1.53567200446e+00  1.59683297199e+00  1.65924993733e+00  1.72287119390e+00
       1.78763753671e+00  1.85348182252e+00  1.92032852938e+00  1.98809331917e+00
       2.05668260751e+00  2.12599314584e+00  2.19591162090e+00  2.26631427789e+00
       2.33706657368e+00  2.40802286751e+00  2.47902615705e+00  2.54990786840e+00
       2.62048770916e+00  2.69057359435e+00  2.75996165548e+00  2.82843634341e+00
       2.89577063623e+00  2.96172636330e+00  3.02605465705e+00  3.08849654387e+00
       3.14878368503e+00  3.20663927851e+00  3.26177913129e+00  3.31391291109e+00
       3.36274558491e+00  3.40797905016e+00  3.44931396185e+00  3.48645175717e+00
       3.51909687569e+00  3.54695917009e+00  3.56975649880e+00  3.58721748767e+00
       3.59908444350e+00  3.60511639733e+00  3.60509225044e+00  3.59881399090e+00
       3.58610994285e+00  3.56683800600e+00  3.54088883711e+00  3.50818892094e+00
       3.46870347368e+00  3.42243911815e+00  3.36944626775e+00  3.30982115408e+00
       3.24370743313e+00  3.17129730614e+00  3.09283209378e+00  3.00860220740e+00
       2.91894646732e+00  2.82425072716e+00  2.72494577354e+00  2.62150448346e+00
       2.51443823585e+00  2.40429259028e+00  2.29164226300e+00  2.17708544901e+00
       2.06123755782e+00  1.94472444909e+00  1.82817527269e+00  1.71221503405e+00
       1.59745702048e+00  1.48449523558e+00  1.37389699732e+00  1.26619585947e+00
       1.16188501539e+00  1.06141133839e+00  9.65170201596e-01  8.73501205365e-01
       7.86684919328e-01  7.04940721414e-01  6.28425787529e-01  5.57235254095e-01
       4.91403542479e-01  4.30906800706e-01  3.75666385036e-01  3.25553273463e-01
       2.80393276156e-01  2.39972885634e-01  2.04045593003e-01  1.72338486614e-01
       1.44558946614e-01  1.20401252971e-01  9.95529356181e-02  8.17007126347e-02
       6.65358849847e-02  5.37590831318e-02  4.30842903417e-02  3.42420982734e-02
       2.69821809482e-02  2.10750019663e-02  1.63127956079e-02  1.25098841696e-02