<UPF version="2.0.1">
  <PP_INFO>
Converted from CP2K GTH format
       <PP_INPUTFILE>
O 
    2    4    0    0
    0.24455430000000       2  -16.66721480000000    2.48731132000000
       1
    0.22095592000000       1   18.33745811000000
       </PP_INPUTFILE>
  </PP_INFO>
  <PP_HEADER
    generated="Generated in analytical, separable form"
    author="Goedecker/Hartwigsen/Hutter/Teter"
    date="Phys.Rev.B58, 3641 (1998); B54, 1703 (1996)"
    comment="This file generated by CP2K ATOM code"
    element="O"
    pseudo_type="NC"
    relativistic="scalar"
    is_ultrasoft="F"
    is_paw="F"
    is_coulomb="F"
    has_so="F"
    has_wfc="T"
    has_gipaw="F"
    paw_as_gipaw="F"
    core_correction="F"
    functional="PBE"
    z_valence="6.0000000000"
    total_psenergy="-31.5657000000"
    wfc_cutoff="0.0000000000"
    rho_cutoff="0.0000000000"
    l_max="1"
    l_max_rho="0"
    l_local="-3"
    mesh_size="400"
    number_of_wfc="2"
    number_of_proj="1"/>
  <PP_MESH dx="1.0000000000000000e+00" mesh="400" xmin="1.0000000000000000e+00" rmax="3.7538232999999998e+01" zmesh="8.0000000000000000e+00">
    <PP_R type="real" size="400" columns="4">
       7.22853190584e-12  2.31286432529e-10  1.75607452138e-09  7.39856944537e-09
       2.25727037849e-08  5.61500555707e-08  1.21316292751e-07  2.36422320493e-07
       4.25829084447e-07  7.20744989012e-07  1.16005490915e-06  1.79113976717e-06
       2.67068567771e-06  3.86548166306e-06  5.45320496294e-06  7.52319298002e-06
       1.01772009232e-05  1.35301442221e-05  1.77108248203e-05  2.28626404723e-05
       2.91442761927e-05  3.67303770427e-05  4.58122014526e-05  5.65982543296e-05
       6.93148992117e-05  8.42069487776e-05  1.01538233049e-04  1.21592144665e-04
       1.44672160631e-04  1.71102340018e-04  2.01227797072e-04  2.35415149303e-04
       2.74052940106e-04  3.17552035547e-04  3.66345994967e-04  4.20891415136e-04
       4.81668247687e-04  5.49180089643e-04  6.23954446896e-04  7.06542970501e-04
       7.97521665771e-04  8.97491074118e-04  1.00707642770e-03  1.12692777695e-03
       1.25772009112e-03  1.40015333198e-03  1.55495250098e-03  1.72286765998e-03
       1.90467392601e-03  2.10117144037e-03  2.31318531236e-03  2.54156553820e-03
       2.78718689553e-03  3.05094881400e-03  3.33377522260e-03  3.63661437407e-03
       3.96043864728e-03  4.30624432799e-03  4.67505136882e-03  5.06790312903e-03
       5.48586609482e-03  5.93002958103e-03  6.40150541486e-03  6.90142760243e-03
       7.43095197903e-03  7.99125584389e-03  8.58353758021e-03  9.20901626139e-03
       9.86893124424e-03  1.05645417501e-02  1.12971264349e-02  1.20679829481e-02
       1.28784274833e-02  1.37297943191e-02  1.46234353530e-02  1.55607196278e-02
       1.65430328521e-02  1.75717769162e-02  1.86483694024e-02  1.97742430934e-02
       2.09508454764e-02  2.21796382464e-02  2.34620968078e-02  2.47997097761e-02
       2.61939784799e-02  2.76464164637e-02  2.91585489930e-02  3.07319125619e-02
       3.23680544040e-02  3.40685320070e-02  3.58349126321e-02  3.76687728386e-02
       3.95716980139e-02  4.15452819102e-02  4.35911261879e-02  4.57108399664e-02
       4.79060393828e-02  5.01783471587e-02  5.25293921763e-02  5.49608090629e-02
       5.74742377858e-02  6.00713232566e-02  6.27537149461e-02  6.55230665091e-02
       6.83810354214e-02  7.13292826268e-02  7.43694721957e-02  7.75032709962e-02
       8.07323483757e-02  8.40583758557e-02  8.74830268379e-02  9.10079763235e-02
       9.46349006441e-02  9.83654772053e-02  1.02201384244e-01  1.06144300596e-01
       1.10195905480e-01  1.14357878290e-01  1.18631898405e-01  1.23019645005e-01
       1.27522796911e-01  1.32143032424e-01  1.36882029186e-01  1.41741464052e-01
       1.46723012974e-01  1.51828350893e-01  1.57059151655e-01  1.62417087924e-01
       1.67903831121e-01  1.73521051369e-01  1.79270417446e-01  1.85153596759e-01
       1.91172255326e-01  1.97328057764e-01  2.03622667296e-01  2.10057745770e-01
       2.16634953680e-01  2.23355950208e-01  2.30222393274e-01  2.37235939592e-01
       2.44398244747e-01  2.51710963269e-01  2.59175748728e-01  2.66794253839e-01
       2.74568130569e-01  2.82499030260e-01  2.90588603761e-01  2.98838501574e-01
       3.07250373996e-01  3.15825871286e-01  3.24566643833e-01  3.33474342335e-01
       3.42550617983e-01  3.51797122663e-01  3.61215509160e-01  3.70807431370e-01
       3.80574544524e-01  3.90518505419e-01  4.00640972657e-01  4.10943606896e-01
       4.21428071099e-01  4.32096030808e-01  4.42949154406e-01  4.53989113405e-01
       4.65217582730e-01  4.76636241017e-01  4.88246770917e-01  5.00050859406e-01
       5.12050198107e-01  5.24246483615e-01  5.36641417835e-01  5.49236708323e-01
       5.62034068637e-01  5.75035218695e-01  5.88241885146e-01  6.01655801736e-01
       6.15278709697e-01  6.29112358134e-01  6.43158504427e-01  6.57418914630e-01
       6.71895363892e-01  6.86589636877e-01  7.01503528194e-01  7.16638842840e-01
       7.31997396644e-01  7.47581016724e-01  7.63391541957e-01  7.79430823446e-01
       7.95700725012e-01  8.12203123679e-01  8.28939910182e-01  8.45912989478e-01
       8.63124281265e-01  8.80575720517e-01  8.98269258026e-01  9.16206860955e-01
       9.34390513401e-01  9.52822216969e-01  9.71503991362e-01  9.90437874975e-01
       1.00962592551e+00  1.02907022059e+00  1.04877285840e+00  1.06873595834e+00
       1.08896166167e+00  1.10945213221e+00  1.13020955700e+00  1.15123614703e+00
       1.17253413794e+00  1.19410579078e+00  1.21595339271e+00  1.23807925785e+00
       1.26048572797e+00  1.28317517335e+00  1.30614999360e+00  1.32941261848e+00
       1.35296550876e+00  1.37681115710e+00  1.40095208896e+00  1.42539086350e+00
       1.45013007454e+00  1.47517235154e+00  1.50052036053e+00  1.52617680519e+00
       1.55214442785e+00  1.57842601057e+00  1.60502437624e+00  1.63194238966e+00
       1.65918295875e+00  1.68674903569e+00  1.71464361814e+00  1.74286975047e+00
       1.77143052508e+00  1.80032908367e+00  1.82956861859e+00  1.85915237427e+00
       1.88908364858e+00  1.91936579436e+00  1.95000222087e+00  1.98099639540e+00
       2.01235184480e+00  2.04407215718e+00  2.07616098357e+00  2.10862203968e+00
       2.14145910766e+00  2.17467603802e+00  2.20827675146e+00  2.24226524089e+00
       2.27664557341e+00  2.31142189244e+00  2.34659841990e+00  2.38217945835e+00
       2.41816939337e+00  2.45457269592e+00  2.49139392475e+00  2.52863772900e+00
       2.56630885075e+00  2.60441212779e+00  2.64295249638e+00  2.68193499418e+00
       2.72136476318e+00  2.76124705291e+00  2.80158722354e+00  2.84239074930e+00
       2.88366322184e+00  2.92541035387e+00  2.96763798281e+00  3.01035207467e+00
       3.05355872799e+00  3.09726417797e+00  3.14147480079e+00  3.18619711802e+00
       3.23143780123e+00  3.27720367684e+00  3.32350173102e+00  3.37033911495e+00
       3.41772315014e+00  3.46566133409e+00  3.51416134605e+00  3.56323105315e+00
       3.61287851667e+00  3.66311199862e+00  3.71393996861e+00  3.76537111099e+00
       3.81741433227e+00  3.87007876892e+00  3.92337379544e+00  3.97730903285e+00
       4.03189435749e+00  4.08713991025e+00  4.14305610626e+00  4.19965364490e+00
       4.25694352037e+00  4.31493703276e+00  4.37364579952e+00  4.43308176763e+00
       4.49325722620e+00  4.55418481982e+00  4.61587756241e+00  4.67834885190e+00
       4.74161248552e+00  4.80568267591e+00  4.87057406808e+00  4.93630175712e+00
       5.00288130699e+00  5.07032877013e+00  5.13866070824e+00  5.20789421408e+00
       5.27804693449e+00  5.34913709465e+00  5.42118352367e+00  5.49420568167e+00
       5.56822368827e+00  5.64325835285e+00  5.71933120643e+00  5.79646453548e+00
       5.87468141775e+00  5.95400576017e+00  6.03446233910e+00  6.11607684305e+00
       6.19887591802e+00  6.28288721572e+00  6.36813944483e+00  6.45466242560e+00
       6.54248714801e+00  6.63164583376e+00  6.72217200241e+00  6.81410054208e+00
       6.90746778497e+00  7.00231158817e+00  7.09867142021e+00  7.19658845383e+00
       7.29610566552e+00  7.39726794245e+00  7.50012219742e+00  7.60471749259e+00
       7.71110517277e+00  7.81933900930e+00  7.92947535534e+00  8.04157331379e+00
       8.15569491921e+00  8.27190533484e+00  8.39027306665e+00  8.51087019584e+00
       8.63377263206e+00  8.75906038931e+00  8.88681788726e+00  9.01713428073e+00
       9.15010382043e+00  9.28582624889e+00  9.42440723554e+00  9.56595885564e+00
       9.71060011879e+00  9.85845755290e+00  1.00096658511e+01  1.01643685896e+01
       1.03227190264e+01  1.04848809919e+01  1.06510298839e+01  1.08213537828e+01
       1.09960547046e+01  1.11753500125e+01  1.13594740119e+01  1.15486797575e+01
       1.17432411096e+01  1.19434550779e+01  1.21496445077e+01  1.23621611644e+01
       1.25813892956e+01  1.28077497563e+01  1.30417048124e+01  1.32837637582e+01
       1.35344895202e+01  1.37945064614e+01  1.40645096609e+01  1.43452760122e+01
       1.46376775900e+01  1.49426978619e+01  1.52614515069e+01  1.55952088472e+01
       1.59454262445e+01  1.63137843006e+01  1.67022363949e+01  1.71130711103e+01
       1.75489936059e+01  1.80132332876e+01  1.85096886807e+01  1.90431260874e+01
       1.96194579189e+01  2.02461424280e+01  2.09327744956e+01  2.16919887596e+01
       2.25408969076e+01  2.35034897804e+01  2.46149037070e+01  2.59296118995e+01
       2.75388728474e+01  2.96137651572e+01  3.25383656839e+01  3.75382328098e+01
    </PP_R>
    <PP_RAB type="real" size="400" columns="4">
       3.61412465855e-11  5.78188964494e-10  2.92648282218e-09  9.24648195069e-09
       2.25661064928e-08  4.67720198933e-08  8.66048561826e-08  1.47653397850e-07
       2.36347711306e-07  3.59951248387e-07  5.26551923849e-07  7.45052180357e-07
       1.02515805405e-06  1.37736725537e-06  1.81295628150e-06  2.34396657848e-06
       2.98318977251e-06  3.74415199212e-06  4.64109730401e-06  5.68897028740e-06
       6.90339777347e-06  8.30066977780e-06  9.89771965563e-06  1.17121035113e-05
       1.37619788945e-05  1.60660828183e-05  1.86437091343e-05  2.15146853016e-05
       2.46993485900e-05  2.82185217549e-05  3.20934882265e-05  3.63459668547e-05
       4.09980862524e-05  4.60723587821e-05  5.15916542287e-05  5.75791732062e-05
       6.40584203412e-05  7.10531772822e-05  7.85874755801e-05  8.66855694856e-05
       9.53719087129e-05  1.04671111214e-04  1.14607936011e-04  1.25207256136e-04
       1.36494031713e-04  1.48493283248e-04  1.61230065148e-04  1.74729439530e-04
       1.89016450357e-04  2.04116097938e-04  2.20053313843e-04  2.36852936265e-04
       2.54539685870e-04  2.73138142168e-04  2.92672720446e-04  3.13167649293e-04
       3.34646948751e-04  3.57134409115e-04  3.80653570425e-04  4.05227702659e-04
       4.30879786667e-04  4.57632495857e-04  4.85508178657e-04  5.14528841780e-04
       5.44716134295e-04  5.76091332528e-04  6.08675325798e-04  6.42488603009e-04
       6.77551240098e-04  7.13882888342e-04  7.51502763545e-04  7.90429636085e-04
       8.30681821840e-04  8.72277173981e-04  9.15233075636e-04  9.59566433411e-04
       1.00529367177e-03  1.05243072828e-03  1.10099304962e-03  1.15099558855e-03
       1.20245280156e-03  1.25537864739e-03  1.30978658629e-03  1.36568958013e-03
       1.42310009316e-03  1.48203009352e-03  1.54249105553e-03  1.60449396261e-03
       1.66804931085e-03  1.73316711327e-03  1.79985690471e-03  1.86812774726e-03
       1.93798823631e-03  2.00944650717e-03  2.08251024216e-03  2.15718667826e-03
       2.23348261517e-03  2.31140442393e-03  2.39095805584e-03  2.47214905185e-03
       2.55498255237e-03  2.63946330735e-03  2.72559568672e-03  2.81338369116e-03
       2.90283096313e-03  2.99394079816e-03  3.08671615638e-03  3.18115967427e-03
       3.27727367655e-03  3.37506018837e-03  3.47452094746e-03  3.57565741662e-03
       3.67847079612e-03  3.78296203635e-03  3.88913185047e-03  3.99698072711e-03
       4.10650894313e-03  4.21771657643e-03  4.33060351870e-03  4.44516948823e-03
       4.56141404268e-03  4.67933659180e-03  4.79893641013e-03  4.92021264962e-03
       5.04316435224e-03  5.16779046239e-03  5.29408983939e-03  5.42206126976e-03
       5.55170347939e-03  5.68301514572e-03  5.81599490964e-03  5.95064138743e-03
       6.08695318243e-03  6.22492889668e-03  6.36456714239e-03  6.50586655324e-03
       6.64882579562e-03  6.79344357961e-03  6.93971866996e-03  7.08764989676e-03
       7.23723616609e-03  7.38847647051e-03  7.54136989931e-03  7.69591564869e-03
       7.85211303184e-03  8.00996148875e-03  8.16946059599e-03  8.33061007627e-03
       8.49340980796e-03  8.65785983438e-03  8.82396037303e-03  8.99171182463e-03
       9.16111478213e-03  9.33217003952e-03  9.50487860054e-03  9.67924168738e-03
       9.85526074909e-03  1.00329374701e-02  1.02122737786e-02  1.03932718546e-02
       1.05759341383e-02  1.07602633380e-02  1.09462624384e-02  1.11339347085e-02
       1.13232837093e-02  1.15143133018e-02  1.17070276553e-02  1.19014312544e-02
       1.20975289074e-02  1.22953257540e-02  1.24948272730e-02  1.26960392898e-02
       1.28989679849e-02  1.31036199010e-02  1.33100019513e-02  1.35181214271e-02
       1.37279860059e-02  1.39396037594e-02  1.41529831613e-02  1.43681330957e-02
       1.45850628651e-02  1.48037821990e-02  1.50243012616e-02  1.52466306612e-02
       1.54707814582e-02  1.56967651740e-02  1.59245938001e-02  1.61542798069e-02
       1.63858361531e-02  1.66192762949e-02  1.68546141958e-02  1.70918643364e-02
       1.73310417239e-02  1.75721619032e-02  1.78152409666e-02  1.80602955647e-02
       1.83073429176e-02  1.85564008260e-02  1.88074876825e-02  1.90606224840e-02
       1.93158248431e-02  1.95731150013e-02  1.98325138416e-02  2.00940429014e-02
       2.03577243866e-02  2.06235811853e-02  2.08916368820e-02  2.11619157732e-02
       2.14344428818e-02  2.17092439735e-02  2.19863455727e-02  2.22657749796e-02
       2.25475602874e-02  2.28317304000e-02  2.31183150508e-02  2.34073448215e-02
       2.36988511620e-02  2.39928664106e-02  2.42894238152e-02  2.45885575550e-02
       2.48903027631e-02  2.51946955496e-02  2.55017730261e-02  2.58115733300e-02
       2.61241356509e-02  2.64395002570e-02  2.67577085230e-02  2.70788029585e-02
       2.74028272380e-02  2.77298262314e-02  2.80598460359e-02  2.83929340093e-02
       2.87291388041e-02  2.90685104029e-02  2.94111001556e-02  2.97569608172e-02
       3.01061465878e-02  3.04587131537e-02  3.08147177300e-02  3.11742191050e-02
       3.15372776865e-02  3.19039555494e-02  3.22743164852e-02  3.26484260542e-02
       3.30263516388e-02  3.34081624992e-02  3.37939298318e-02  3.41837268292e-02
       3.45776287430e-02  3.49757129491e-02  3.53780590159e-02  3.57847487745e-02
       3.61958663928e-02  3.66114984521e-02  3.70317340266e-02  3.74566647672e-02
       3.78863849879e-02  3.83209917562e-02  3.87605849875e-02  3.92052675434e-02
       3.96551453346e-02  4.01103274272e-02  4.05709261555e-02  4.10370572379e-02
       4.15088398991e-02  4.19863969978e-02  4.24698551591e-02  4.29593449144e-02
       4.34550008465e-02  4.39569617420e-02  4.44653707506e-02  4.49803755518e-02
       4.55021285297e-02  4.60307869559e-02  4.65665131809e-02  4.71094748354e-02
       4.76598450408e-02  4.82178026302e-02  4.87835323804e-02  4.93572252552e-02
       4.99390786613e-02  5.05292967168e-02  5.11280905335e-02  5.17356785135e-02
       5.23522866620e-02  5.29781489152e-02  5.36135074867e-02  5.42586132312e-02
       5.49137260290e-02  5.55791151901e-02  5.62550598814e-02  5.69418495762e-02
       5.76397845305e-02  5.83491762843e-02  5.90703481923e-02  5.98036359845e-02
       6.05493883598e-02  6.13079676134e-02  6.20797503018e-02  6.28651279469e-02
       6.36645077828e-02  6.44783135474e-02  6.53069863229e-02  6.61509854281e-02
       6.70107893669e-02  6.78868968360e-02  6.87798277976e-02  6.96901246213e-02
       7.06183532999e-02  7.15651047463e-02  7.25309961761e-02  7.35166725840e-02
       7.45228083204e-02  7.55501087773e-02  7.65993121914e-02  7.76711915748e-02
       7.87665567834e-02  7.98862567351e-02  8.10311817903e-02  8.22022663084e-02
       8.34004913967e-02  8.46268878675e-02  8.58825394232e-02  8.71685860891e-02
       8.84862279179e-02  8.98367289899e-02  9.12214217379e-02  9.26417116279e-02
       9.40990822294e-02  9.55951007141e-02  9.71314238267e-02  9.87098043742e-02
       1.00332098288e-01  1.02000272319e-01  1.03716412432e-01  1.05482732973e-01
       1.07301586698e-01  1.09175475763e-01  1.11107063760e-01  1.13099188958e-01
       1.15154878853e-01  1.17277366205e-01  1.19470106734e-01  1.21736798670e-01
       1.24081404414e-01  1.26508174543e-01  1.29021674500e-01  1.31626814292e-01
       1.34328881621e-01  1.37133578915e-01  1.40047064795e-01  1.43076000627e-01
       1.46227602890e-01  1.49509702229e-01  1.52930810211e-01  1.56500194981e-01
       1.60227967241e-01  1.64125178212e-01  1.68203931607e-01  1.72477511980e-01
       1.76960532329e-01  1.81669104410e-01  1.86621035940e-01  1.91836059782e-01
       1.97336101321e-01  2.03145591685e-01  2.09291836235e-01  2.15805450050e-01
       2.22720875073e-01  2.30076997349e-01  2.37917887698e-01  2.46293695651e-01
       2.55261734930e-01  2.64887810143e-01  2.75247849657e-01  2.86429930338e-01
       2.98536808495e-01  3.11689111057e-01  3.26029397081e-01  3.41727379682e-01
       3.58986714553e-01  3.78053932212e-01  3.99230347686e-01  4.22888173580e-01
       4.49492675599e-01  4.79633190252e-01  5.14067435763e-01  5.53786274450e-01
       6.00110855785e-01  6.54842747474e-01  7.20504143675e-01  8.00738214302e-01
       9.01009712949e-01  1.02990611082e+00  1.20173985634e+00  1.44227336796e+00
       1.80303143236e+00  2.40423865599e+00  3.60656595712e+00  7.21335303926e+00
    </PP_RAB>
  </PP_MESH>
  <PP_LOCAL type="real" size="400" columns="4">
    -7.24857130967e+01 -7.24857130967e+01 -7.24857130967e+01 -7.24857130967e+01
    -7.24857130967e+01 -7.24857130967e+01 -7.24857130967e+01 -7.24857130967e+01
    -7.24857130966e+01 -7.24857130964e+01 -7.24857130961e+01 -7.24857130952e+01
    -7.24857130933e+01 -7.24857130897e+01 -7.24857130827e+01 -7.24857130700e+01
    -7.24857130479e+01 -7.24857130105e+01 -7.24857129490e+01 -7.24857128505e+01
    -7.24857126966e+01 -7.24857124613e+01 -7.24857121082e+01 -7.24857115880e+01
    -7.24857108339e+01 -7.24857097572e+01 -7.24857082410e+01 -7.24857061336e+01
    -7.24857032393e+01 -7.24856993086e+01 -7.24856940260e+01 -7.24856869955e+01
    -7.24856777247e+01 -7.24856656047e+01 -7.24856498885e+01 -7.24856296651e+01
    -7.24856038304e+01 -7.24855710537e+01 -7.24855297404e+01 -7.24854779889e+01
    -7.24854135431e+01 -7.24853337385e+01 -7.24852354424e+01 -7.24851149875e+01
    -7.24849680977e+01 -7.24847898067e+01 -7.24845743680e+01 -7.24843151559e+01
    -7.24840045576e+01 -7.24836338545e+01 -7.24831930934e+01 -7.24826709462e+01
    -7.24820545578e+01 -7.24813293818e+01 -7.24804790024e+01 -7.24794849439e+01
    -7.24783264642e+01 -7.24769803347e+01 -7.24754206045e+01 -7.24736183480e+01
    -7.24715413962e+01 -7.24691540511e+01 -7.24664167818e+01 -7.24632859032e+01
    -7.24597132353e+01 -7.24556457440e+01 -7.24510251629e+01 -7.24457875943e+01
    -7.24398630919e+01 -7.24331752218e+01 -7.24256406052e+01 -7.24171684397e+01
    -7.24076600011e+01 -7.23970081259e+01 -7.23850966742e+01 -7.23717999736e+01
    -7.23569822460e+01 -7.23404970160e+01 -7.23221865043e+01 -7.23018810056e+01
    -7.22793982537e+01 -7.22545427750e+01 -7.22271052325e+01 -7.21968617637e+01
    -7.21635733134e+01 -7.21269849662e+01 -7.20868252815e+01 -7.20428056357e+01
    -7.19946195744e+01 -7.19419421823e+01 -7.18844294740e+01 -7.18217178134e+01
    -7.17534233676e+01 -7.16791416034e+01 -7.15984468344e+01 -7.15108918278e+01
    -7.14160074798e+01 -7.13133025714e+01 -7.12022636149e+01 -7.10823548035e+01
    -7.09530180775e+01 -7.08136733193e+01 -7.06637186942e+01 -7.05025311498e+01
    -7.03294670922e+01 -7.01438632541e+01 -6.99450377727e+01 -6.97322914961e+01
    -6.95049095342e+01 -6.92621630737e+01 -6.90033114754e+01 -6.87276046701e+01
    -6.84342858719e+01 -6.81225946246e+01 -6.77917701951e+01 -6.74410553284e+01
    -6.70697003750e+01 -6.66769677977e+01 -6.62621370657e+01 -6.58245099336e+01
    -6.53634161060e+01 -6.48782192768e+01 -6.43683235304e+01 -6.38331800835e+01
    -6.32722943409e+01 -6.26852332287e+01 -6.20716327601e+01 -6.14312057822e+01
    -6.07637498390e+01 -6.00691550775e+01 -5.93474121139e+01 -5.85986197643e+01
    -5.78229925354e+01 -5.70208677608e+01 -5.61927122554e+01 -5.53391283578e+01
    -5.44608592155e+01 -5.35587931690e+01 -5.26339670815e+01 -5.16875684618e+01
    -5.07209362293e+01 -4.97355599752e+01 -4.87330775787e+01 -4.77152710556e+01
    -4.66840605266e+01 -4.56414962199e+01 -4.45897484441e+01 -4.35310955019e+01
    -4.24679095478e+01 -4.14026404348e+01 -4.03377976376e+01 -3.92759303880e+01
    -3.82196062051e+01 -3.71713880561e+01 -3.61338104306e+01 -3.51093546635e+01
    -3.41004238814e+01 -3.31093179927e+01 -3.21382091713e+01 -3.11891183069e+01
    -3.02638929116e+01 -2.93641869685e+01 -2.84914431990e+01 -2.76468781954e+01
    -2.68314708222e+01 -2.60459542324e+01 -2.52908117711e+01 -2.45662769512e+01
    -2.38723375911e+01 -2.32087440924e+01 -2.25750217301e+01 -2.19704867072e+01
    -2.13942656209e+01 -2.08453178783e+01 -2.03224605118e+01 -1.98243947650e+01
    -1.93497337669e+01 -1.88970305767e+01 -1.84648058755e+01 -1.80515745997e+01
    -1.76558708569e+01 -1.72762705356e+01 -1.69114111116e+01 -1.65600082669e+01
    -1.62208690606e+01 -1.58929015218e+01 -1.55751206687e+01 -1.52666510867e+01
    -1.49667263107e+01 -1.46746853612e+01 -1.43899668585e+01 -1.41121011966e+01
    -1.38407012845e+01 -1.35754523676e+01 -1.33161014208e+01 -1.30624465620e+01
    -1.28143268754e+01 -1.25716129646e+01 -1.23341984733e+01 -1.21019927351e+01
    -1.18749146325e+01 -1.16528876782e+01 -1.14358362707e+01 -1.12236830275e+01
    -1.10163470671e+01 -1.08137430900e+01 -1.06157811005e+01 -1.04223666134e+01
    -1.02334012016e+01 -1.00487832571e+01 -9.86840886028e+00 -9.69217267124e+00
    -9.51996878357e+00 -9.35169149734e+00 -9.18723598725e+00 -9.02649885539e+00
    -8.86937856895e+00 -8.71577579029e+00 -8.56559361178e+00 -8.41873770956e+00
    -8.27511643134e+00 -8.13464083212e+00 -7.99722467059e+00 -7.86278437672e+00
    -7.73123899939e+00 -7.60251014072e+00 -7.47652188235e+00 -7.35320070734e+00
    -7.23247542034e+00 -7.11427706787e+00 -6.99853885983e+00 -6.88519609290e+00
    -6.77418607641e+00 -6.66544806065e+00 -6.55892316786e+00 -6.45455432591e+00
    -6.35228620446e+00 -6.25206515363e+00 -6.15383914517e+00 -6.05755771584e+00
    -5.96317191300e+00 -5.87063424246e+00 -5.77989861815e+00 -5.69092031393e+00
    -5.60365591715e+00 -5.51806328399e+00 -5.43410149658e+00 -5.35173082167e+00
    -5.27091267090e+00 -5.19160956259e+00 -5.11378508493e+00 -5.03740386055e+00
    -4.96243151240e+00 -4.88883463095e+00 -4.81658074252e+00 -4.74563827882e+00
    -4.67597654760e+00 -4.60756570435e+00 -4.54037672505e+00 -4.47438137989e+00
    -4.40955220790e+00 -4.34586249259e+00 -4.28328623830e+00 -4.22179814755e+00
    -4.16137359908e+00 -4.10198862670e+00 -4.04361989889e+00 -3.98624469907e+00
    -3.92984090662e+00 -3.87438697847e+00 -3.81986193140e+00 -3.76624532492e+00
    -3.71351724468e+00 -3.66165828655e+00 -3.61064954112e+00 -3.56047257879e+00
    -3.51110943538e+00 -3.46254259814e+00 -3.41475499225e+00 -3.36772996783e+00
    -3.32145128729e+00 -3.27590311313e+00 -3.23106999613e+00 -3.18693686394e+00
    -3.14348900997e+00 -3.10071208275e+00 -3.05859207551e+00 -3.01711531613e+00
    -2.97626845746e+00 -2.93603846785e+00 -2.89641262204e+00 -2.85737849229e+00
    -2.81892393981e+00 -2.78103710643e+00 -2.74370640652e+00 -2.70692051918e+00
    -2.67066838062e+00 -2.63493917677e+00 -2.59972233617e+00 -2.56500752293e+00
    -2.53078463005e+00 -2.49704377281e+00 -2.46377528239e+00 -2.43096969967e+00
    -2.39861776917e+00 -2.36671043320e+00 -2.33523882609e+00 -2.30419426868e+00
    -2.27356826283e+00 -2.24335248614e+00 -2.21353878680e+00 -2.18411917851e+00
    -2.15508583559e+00 -2.12643108816e+00 -2.09814741740e+00 -2.07022745098e+00
    -2.04266395855e+00 -2.01544984727e+00 -1.98857815753e+00 -1.96204205865e+00
    -1.93583484469e+00 -1.90994993034e+00 -1.88438084687e+00 -1.85912123807e+00
    -1.83416485635e+00 -1.80950555877e+00 -1.78513730320e+00 -1.76105414440e+00
    -1.73725023027e+00 -1.71371979794e+00 -1.69045717003e+00 -1.66745675079e+00
    -1.64471302228e+00 -1.62222054052e+00 -1.59997393164e+00 -1.57796788792e+00
    -1.55619716385e+00 -1.53465657209e+00 -1.51334097935e+00 -1.49224530222e+00
    -1.47136450283e+00 -1.45069358440e+00 -1.43022758672e+00 -1.40996158135e+00
    -1.38989066673e+00 -1.37000996301e+00 -1.35031460667e+00 -1.33079974484e+00
    -1.31146052936e+00 -1.29229211040e+00 -1.27328962980e+00 -1.25444821383e+00
    -1.23576296554e+00 -1.21722895652e+00 -1.19884121793e+00 -1.18059473092e+00
    -1.16248441610e+00 -1.14450512211e+00 -1.12665161311e+00 -1.10891855501e+00
    -1.09130050026e+00 -1.07379187109e+00 -1.05638694076e+00 -1.03907981275e+00
    -1.02186439740e+00 -1.00473438563e+00 -9.87683219245e-01 -9.70704057355e-01
    -9.53789738005e-01 -9.36932734349e-01 -9.20125104244e-01 -9.03358432022e-01
    -8.86623760882e-01 -8.69911513945e-01 -8.53211401557e-01 -8.36512311772e-01
    -8.19802180109e-01 -8.03067833596e-01 -7.86294802599e-01 -7.69467091951e-01
    -7.52566900125e-01 -7.35574271357e-01 -7.18466660168e-01 -7.01218379955e-01
    -6.83799895850e-01 -6.66176904969e-01 -6.48309121076e-01 -6.30148639722e-01
    -6.11637694048e-01 -5.92705501440e-01 -5.73263711531e-01 -5.53199622818e-01
    -5.32365683992e-01 -5.10562478685e-01 -4.87509524426e-01 -4.62791346299e-01
    -4.35747681704e-01 -4.05216963676e-01 -3.68795412670e-01 -3.19674078980e-01
  </PP_LOCAL>
  <PP_NONLOCAL>
    <PP_BETA.1 type="real" size="400" columns="4" index="1" angular_momentum="0" cutoff_radius_index="400">
       2.09104877196e-10  6.69058692705e-09  5.07992150997e-08  2.14023673887e-07
       6.52976636805e-07  1.62429254344e-06  3.50940257691e-06  6.83915640643e-06
       1.23182604116e-05  2.08495022750e-05  3.35577323963e-05  5.18135723715e-05
       7.72568217032e-05  1.11819533878e-04  1.57748733575e-04  2.17628747274e-04
       2.94403120122e-04  3.91396092256e-04  5.12333608737e-04  6.61363837776e-04
       8.43077172599e-04  1.06252569329e-03  1.32524206543e-03  1.63725785360e-03
       2.00512122837e-03  2.43591404643e-03  2.93726828451e-03  3.51738180857e-03
       4.18503346074e-03  4.94959744746e-03  5.82105701317e-03  6.81001738476e-03
       7.92771797290e-03  9.18604381719e-03  1.05975362624e-02  1.21754028547e-02
       1.39335264450e-02  1.58864734907e-02  1.80495015421e-02  2.04385659043e-02
       2.30703254626e-02  2.59621476584e-02  2.91321126040e-02  3.25990163194e-02
       3.63823730765e-02  4.05024168310e-02  4.49801017198e-02  4.98371015991e-02
       5.50958085930e-02  6.07793306192e-02  6.69114878500e-02  7.35168080630e-02
       8.06205208261e-02  8.82485504552e-02  9.64275076702e-02  1.05184679868e-01
       1.14548019913e-01  1.24546133347e-01  1.35208263875e-01  1.46564277012e-01
       1.58644641714e-01  1.71480409830e-01  1.85103193167e-01  1.99545137958e-01
       2.14838896483e-01  2.31017595582e-01  2.48114801754e-01  2.66164482520e-01
       2.85200963696e-01  3.05258882187e-01  3.26373133878e-01  3.48578816159e-01
       3.71911164606e-01  3.96405483265e-01  4.22097067984e-01  4.49021122183e-01
       4.77212664406e-01  5.06706426975e-01  5.37536745015e-01  5.69737435097e-01
       6.03341662690e-01  6.38381797600e-01  6.74889256534e-01  7.12894331906e-01
       7.52426005976e-01  7.93511749419e-01  8.36177303390e-01  8.80446444171e-01
       9.26340729521e-01  9.73879225821e-01  1.02307821523e+00  1.07395088208e+00
       1.12650697777e+00  1.18075246369e+00  1.23668913165e+00  1.29431420155e+00
       1.35361989612e+00  1.41459299304e+00  1.47721435455e+00  1.54145843548e+00
       1.60729277056e+00  1.67467744252e+00  1.74356453275e+00  1.81389755698e+00
       1.88561088880e+00  1.95862917448e+00  2.03286674348e+00  2.10822701917e+00
       2.18460193581e+00  2.26187136794e+00  2.33990257982e+00  2.41854970301e+00
       2.49765325143e+00  2.57703968412e+00  2.65652102687e+00  2.73589456501e+00
       2.81494262039e+00  2.89343242680e+00  2.97111611862e+00  3.04773084838e+00
       3.12299904951e+00  3.19662886090e+00  3.26831473006e+00  3.33773821174e+00
       3.40456897826e+00  3.46846605713e+00  3.52907931042e+00  3.58605116850e+00
       3.63901862869e+00  3.68761552667e+00  3.73147508484e+00  3.77023273826e+00
       3.80352923358e+00  3.83101399164e+00  3.85234871778e+00  3.86721123793e+00
       3.87529953084e+00  3.87633591962e+00  3.87007137735e+00  3.85628989385e+00
       3.83481284190e+00  3.80550327396e+00  3.76827007210e+00  3.72307186798e+00
       3.66992064335e+00  3.60888491773e+00  3.54009242733e+00  3.46373219890e+00
       3.38005592423e+00  3.28937854608e+00  3.19207797388e+00  3.08859385885e+00
       2.97942537238e+00  2.86512794920e+00  2.74630897755e+00  2.62362244255e+00
       2.49776255451e+00  2.36945642254e+00  2.23945586226e+00  2.10852845618e+00
       1.97744801345e+00  1.84698460227e+00  1.71789435161e+00  1.59090923788e+00
       1.46672708570e+00  1.34600201877e+00  1.22933559669e+00  1.11726886470e+00
       1.01027552689e+00  9.08756428049e-01  8.13035496532e-01  7.23357260541e-01
       6.39886004481e-01  5.62706582347e-01  4.91826853161e-01  4.27181651562e-01
       3.68638157194e-01  3.16002481610e-01  2.69027253390e-01  2.27419952833e-01
       1.90851728425e-01  1.58966419299e-01  1.31389511467e-01  1.07736770412e-01
       8.76223178362e-02  7.06659544723e-02  5.64995718888e-02  4.47725418263e-02
       3.51560192489e-02  2.73461423776e-02  2.10661570662e-02  1.60675318343e-02
       1.21301620045e-02  9.06178552553e-03  6.69674864811e-03  4.89426666427e-03
       3.53632400001e-03  2.52535008089e-03  1.78179393845e-03  1.24170305380e-03