<UPF version="2.0.1">
  <PP_INFO>
Converted from CP2K GTH format
       <PP_INPUTFILE>
S 
    2    4    0    0
    0.42000000000000       1   -5.98626038000000
       2
    0.36482035000000       2   13.14354448000000   -4.24183045000000
                                                    5.47617957000000
    0.40948048000000       2    3.70089057000000    0.00000000000000
                                                    0.00000000000000
                                3.70089057000000    0.00000000000000
                                                    0.03148290000000
       </PP_INPUTFILE>
  </PP_INFO>
  <PP_HEADER
    generated="Generated in analytical, separable form"
    author="Goedecker/Hartwigsen/Hutter/Teter"
    date="Phys.Rev.B58, 3641 (1998); B54, 1703 (1996)"
    comment="This file generated by CP2K ATOM code"
    element="S"
    pseudo_type="NC"
    relativistic="full"
    is_ultrasoft="F"
    is_paw="F"
    is_coulomb="F"
    has_so="T"
    has_wfc="T"
    has_gipaw="F"
    paw_as_gipaw="F"
    core_correction="F"
    functional="PBE"
    z_valence="6.0000000000"
    total_psenergy="-20.1334560000"
    wfc_cutoff="0.0000000000"
    rho_cutoff="0.0000000000"
    l_max="1"
    l_max_rho="0"
    l_local="-3"
    mesh_size="1151"
    number_of_wfc="3"
    number_of_proj="6"/>
  <PP_MESH dx="1.2500000000000001e-02" mesh="1151" xmin="-7.0000000000000000e+00" rmax="9.9724489406190571e+01" zmesh="1.6000000000000000e+01">
    <PP_R type="real" size="1151" columns="4">
       5.69926228472e-05  5.77095017918e-05  5.84353979635e-05  5.91704247851e-05
       5.99146971059e-05  6.06683312200e-05  6.14314448843e-05  6.22041573368e-05
       6.29865893155e-05  6.37788630769e-05  6.45811024155e-05  6.53934326827e-05
       6.62159808067e-05  6.70488753125e-05  6.78922463415e-05  6.87462256721e-05
       6.96109467403e-05  7.04865446606e-05  7.13731562469e-05  7.22709200340e-05
       7.31799762994e-05  7.41004670851e-05  7.50325362194e-05  7.59763293403e-05
       7.69319939171e-05  7.78996792745e-05  7.88795366153e-05  7.98717190442e-05
       8.08763815916e-05  8.18936812382e-05  8.29237769392e-05  8.39668296490e-05
       8.50230023467e-05  8.60924600616e-05  8.71753698985e-05  8.82719010643e-05
       8.93822248942e-05  9.05065148787e-05  9.16449466902e-05  9.27976982111e-05
       9.39649495611e-05  9.51468831257e-05  9.63436835843e-05  9.75555379395e-05
       9.87826355460e-05  1.00025168140e-04  1.01283329871e-04  1.02557317327e-04
       1.03847329573e-04  1.05153568176e-04  1.06476237238e-04  1.07815543428e-04
       1.09171696016e-04  1.10544906904e-04  1.11935390659e-04  1.13343364546e-04
       1.14769048564e-04  1.16212665480e-04  1.17674440861e-04  1.19154603113e-04
       1.20653383514e-04  1.22171016252e-04  1.23707738460e-04  1.25263790253e-04
       1.26839414768e-04  1.28434858201e-04  1.30050369841e-04  1.31686202115e-04
       1.33342610627e-04  1.35019854193e-04  1.36718194886e-04  1.38437898076e-04
       1.40179232468e-04  1.41942470150e-04  1.43727886633e-04  1.45535760890e-04
       1.47366375406e-04  1.49220016217e-04  1.51096972960e-04  1.52997538913e-04
       1.54922011042e-04  1.56870690050e-04  1.58843880423e-04  1.60841890475e-04
       1.62865032401e-04  1.64913622318e-04  1.66987980325e-04  1.69088430543e-04
       1.71215301173e-04  1.73368924542e-04  1.75549637158e-04  1.77757779762e-04
       1.79993697381e-04  1.82257739381e-04  1.84550259523e-04  1.86871616020e-04
       1.89222171586e-04  1.91602293502e-04  1.94012353666e-04  1.96452728654e-04
       1.98923799782e-04  2.01425953158e-04  2.03959579749e-04  2.06525075439e-04
       2.09122841092e-04  2.11753282615e-04  2.14416811019e-04  2.17113842486e-04
       2.19844798432e-04  2.22610105576e-04  2.25410196001e-04  2.28245507228e-04
       2.31116482280e-04  2.34023569753e-04  2.36967223884e-04  2.39947904627e-04
       2.42966077717e-04  2.46022214752e-04  2.49116793258e-04  2.52250296770e-04
       2.55423214904e-04  2.58636043435e-04  2.61889284374e-04  2.65183446047e-04
       2.68519043172e-04  2.71896596944e-04  2.75316635113e-04  2.78779692066e-04
       2.82286308913e-04  2.85837033571e-04  2.89432420846e-04  2.93073032526e-04
       2.96759437463e-04  3.00492211667e-04  3.04271938389e-04  3.08099208222e-04
       3.11974619182e-04  3.15898776811e-04  3.19872294267e-04  3.23895792420e-04
       3.27969899949e-04  3.32095253442e-04  3.36272497494e-04  3.40502284809e-04
       3.44785276298e-04  3.49122141187e-04  3.53513557122e-04  3.57960210269e-04
       3.62462795428e-04  3.67022016135e-04  3.71638584780e-04  3.76313222709e-04
       3.81046660345e-04  3.85839637297e-04  3.90692902477e-04  3.95607214218e-04
       4.00583340391e-04  4.05622058526e-04  4.10724155933e-04  4.15890429825e-04
       4.21121687443e-04  4.26418746181e-04  4.31782433716e-04  4.37213588135e-04
       4.42713058066e-04  4.48281702813e-04  4.53920392488e-04  4.59630008149e-04
       4.65411441933e-04  4.71265597202e-04  4.77193388679e-04  4.83195742594e-04
       4.89273596827e-04  4.95427901054e-04  5.01659616900e-04  5.07969718081e-04
       5.14359190564e-04  5.20829032717e-04  5.27380255466e-04  5.34013882453e-04
       5.40730950195e-04  5.47532508249e-04  5.54419619371e-04  5.61393359686e-04
       5.68454818856e-04  5.75605100248e-04  5.82845321108e-04  5.90176612735e-04
       5.97600120659e-04  6.05117004817e-04  6.12728439739e-04  6.20435614726e-04
       6.28239734040e-04  6.36142017090e-04  6.44143698625e-04  6.52246028923e-04
       6.60450273991e-04  6.68757715757e-04  6.77169652277e-04  6.85687397933e-04
       6.94312283640e-04  7.03045657054e-04  7.11888882782e-04  7.20843342596e-04
       7.29910435650e-04  7.39091578694e-04  7.48388206300e-04  7.57801771087e-04
       7.67333743942e-04  7.76985614255e-04  7.86758890152e-04  7.96655098726e-04
       8.06675786280e-04  8.16822518567e-04  8.27096881034e-04  8.37500479071e-04
       8.48034938263e-04  8.58701904638e-04  8.69503044934e-04  8.80440046849e-04
       8.91514619312e-04  9.02728492749e-04  9.14083419350e-04  9.25581173344e-04
       9.37223551280e-04  9.49012372302e-04  9.60949478439e-04  9.73036734886e-04
       9.85276030303e-04  9.97669277105e-04  1.01021841176e-03  1.02292539510e-03
       1.03579221261e-03  1.04882087476e-03  1.06201341731e-03  1.07537190162e-03
       1.08889841497e-03  1.10259507091e-03  1.11646400958e-03  1.13050739802e-03
       1.14472743055e-03  1.15912632906e-03  1.17370634342e-03  1.18846975178e-03
       1.20341886096e-03  1.21855600679e-03  1.23388355447e-03  1.24940389896e-03
       1.26511946536e-03  1.28103270925e-03  1.29714611711e-03  1.31346220668e-03
       1.32998352740e-03  1.34671266075e-03  1.36365222069e-03  1.38080485407e-03
       1.39817324101e-03  1.41576009537e-03  1.43356816512e-03  1.45160023282e-03
       1.46985911600e-03  1.48834766766e-03  1.50706877668e-03  1.52602536825e-03
       1.54522040440e-03  1.56465688437e-03  1.58433784517e-03  1.60426636198e-03
       1.62444554867e-03  1.64487855829e-03  1.66556858352e-03  1.68651885724e-03
       1.70773265296e-03  1.72921328538e-03  1.75096411089e-03  1.77298852811e-03
       1.79528997839e-03  1.81787194638e-03  1.84073796057e-03  1.86389159381e-03
       1.88733646389e-03  1.91107623415e-03  1.93511461395e-03  1.95945535935e-03
       1.98410227363e-03  2.00905920793e-03  2.03433006182e-03  2.05991878392e-03
       2.08582937252e-03  2.11206587620e-03  2.13863239448e-03  2.16553307842e-03
       2.19277213130e-03  2.22035380930e-03  2.24828242209e-03  2.27656233359e-03
       2.30519796258e-03  2.33419378344e-03  2.36355432683e-03  2.39328418040e-03
       2.42338798948e-03  2.45387045787e-03  2.48473634851e-03  2.51599048426e-03
       2.54763774865e-03  2.57968308661e-03  2.61213150531e-03  2.64498807486e-03
       2.67825792919e-03  2.71194626677e-03  2.74605835146e-03  2.78059951336e-03
       2.81557514960e-03  2.85099072518e-03  2.88685177386e-03  2.92316389900e-03
       2.95993277445e-03  2.99716414541e-03  3.03486382938e-03  3.07303771699e-03
       3.11169177299e-03  3.15083203717e-03  3.19046462526e-03  3.23059572994e-03
       3.27123162178e-03  3.31237865021e-03  3.35404324455e-03  3.39623191496e-03
       3.43895125353e-03  3.48220793522e-03  3.52600871899e-03  3.57036044879e-03
       3.61527005468e-03  3.66074455387e-03  3.70679105184e-03  3.75341674346e-03
       3.80062891408e-03  3.84843494070e-03  3.89684229310e-03  3.94585853505e-03
       3.99549132542e-03  4.04574841944e-03  4.09663766988e-03  4.14816702829e-03
       4.20034454623e-03  4.25317837656e-03  4.30667677467e-03  4.36084809978e-03
       4.41570081628e-03  4.47124349501e-03  4.52748481464e-03  4.58443356298e-03
       4.64209863840e-03  4.70048905117e-03  4.75961392491e-03  4.81948249802e-03
       4.88010412507e-03  4.94148827832e-03  5.00364454917e-03  5.06658264966e-03
       5.13031241399e-03  5.19484380008e-03  5.26018689108e-03  5.32635189699e-03
       5.39334915621e-03  5.46118913721e-03  5.52988244013e-03  5.59943979843e-03
       5.66987208059e-03  5.74119029180e-03  5.81340557567e-03  5.88652921599e-03
       5.96057263847e-03  6.03554741256e-03  6.11146525321e-03  6.18833802274e-03
       6.26617773268e-03  6.34499654563e-03  6.42480677721e-03  6.50562089791e-03
       6.58745153512e-03  6.67031147503e-03  6.75421366468e-03  6.83917121395e-03
       6.92519739765e-03  7.01230565752e-03  7.10050960442e-03  7.18982302040e-03
       7.28025986084e-03  7.37183425671e-03  7.46456051667e-03  7.55845312940e-03
       7.65352676581e-03  7.74979628135e-03  7.84727671832e-03  7.94598330825e-03
       8.04593147424e-03  8.14713683339e-03  8.24961519924e-03  8.35338258425e-03
       8.45845520229e-03  8.56484947116e-03  8.67258201518e-03  8.78166966779e-03
       8.89212947416e-03  9.00397869384e-03  9.11723480351e-03  9.23191549967e-03
       9.34803870141e-03  9.46562255322e-03  9.58468542781e-03  9.70524592899e-03
       9.82732289460e-03  9.95093539941e-03  1.00761027581e-02  1.02028445284e-02
       1.03311805138e-02  1.04611307673e-02  1.05927155937e-02  1.07259555535e-02
       1.08608714657e-02  1.09974844111e-02  1.11358157358e-02  1.12758870544e-02
       1.14177202533e-02  1.15613374942e-02  1.17067612176e-02  1.18540141463e-02
       1.20031192888e-02  1.21540999431e-02  1.23069797003e-02  1.24617824480e-02
       1.26185323747e-02  1.27772539727e-02  1.29379720426e-02  1.31007116969e-02
       1.32654983642e-02  1.34323577925e-02  1.36013160541e-02  1.37723995490e-02
       1.39456350093e-02  1.41210495034e-02  1.42986704403e-02  1.44785255736e-02
       1.46606430059e-02  1.48450511935e-02  1.50317789505e-02  1.52208554536e-02
       1.54123102464e-02  1.56061732439e-02  1.58024747378e-02  1.60012454005e-02
       1.62025162904e-02  1.64063188564e-02  1.66126849431e-02  1.68216467956e-02
       1.70332370646e-02  1.72474888116e-02  1.74644355138e-02  1.76841110696e-02
       1.79065498038e-02  1.81317864727e-02  1.83598562702e-02  1.85907948326e-02
       1.88246382445e-02  1.90614230444e-02  1.93011862305e-02  1.95439652662e-02
       1.97897980862e-02  2.00387231024e-02  2.02907792099e-02  2.05460057929e-02
       2.08044427311e-02  2.10661304059e-02  2.13311097063e-02  2.15994220361e-02
       2.18711093194e-02  2.21462140082e-02  2.24247790879e-02  2.27068480849e-02
       2.29924650732e-02  2.32816746809e-02  2.35745220977e-02  2.38710530815e-02
       2.41713139659e-02  2.44753516673e-02  2.47832136922e-02  2.50949481446e-02
       2.54106037338e-02  2.57302297815e-02  2.60538762299e-02  2.63815936495e-02
       2.67134332468e-02  2.70494468724e-02  2.73896870291e-02  2.77342068801e-02
       2.80830602573e-02  2.84363016699e-02  2.87939863124e-02  2.91561700739e-02
       2.95229095463e-02  2.98942620334e-02  3.02702855597e-02  3.06510388797e-02
       3.10365814870e-02  3.14269736232e-02  3.18222762880e-02  3.22225512482e-02
       3.26278610476e-02  3.30382690166e-02  3.34538392824e-02  3.38746367787e-02
       3.43007272559e-02  3.47321772915e-02  3.51690543004e-02  3.56114265457e-02
       3.60593631488e-02  3.65129341007e-02  3.69722102729e-02  3.74372634282e-02
       3.79081662320e-02  3.83849922640e-02  3.88678160291e-02  3.93567129695e-02
       3.98517594764e-02  4.03530329017e-02  4.08606115706e-02  4.13745747932e-02
       4.18950028772e-02  4.24219771407e-02  4.29555799244e-02  4.34958946049e-02
       4.40430056074e-02  4.45969984192e-02  4.51579596026e-02  4.57259768092e-02
       4.63011387926e-02  4.68835354232e-02  4.74732577016e-02  4.80703977730e-02
       4.86750489420e-02  4.92873056863e-02  4.99072636725e-02  5.05350197701e-02
       5.11706720674e-02  5.18143198863e-02  5.24660637981e-02  5.31260056391e-02
       5.37942485266e-02  5.44708968748e-02  5.51560564115e-02  5.58498341943e-02
       5.65523386272e-02  5.72636794782e-02  5.79839678955e-02  5.87133164258e-02
       5.94518390313e-02  6.01996511076e-02  6.09568695018e-02  6.17236125309e-02
       6.25000000000e-02  6.32861532213e-02  6.40821950328e-02  6.48882498176e-02
       6.57044435235e-02  6.65309036824e-02  6.73677594303e-02  6.82151415277e-02
       6.90731823797e-02  6.99420160570e-02  7.08217783167e-02  7.17126066233e-02
       7.26146401705e-02  7.35280199030e-02  7.44528885383e-02  7.53893905888e-02
       7.63376723850e-02  7.72978820978e-02  7.82701697620e-02  7.92546872994e-02
       8.02515885430e-02  8.12610292605e-02  8.22831671792e-02  8.33181620102e-02
       8.43661754735e-02  8.54273713234e-02  8.65019153738e-02  8.75899755245e-02
       8.86917217871e-02  8.98073263116e-02  9.09369634136e-02  9.20808096012e-02
       9.32390436026e-02  9.44118463942e-02  9.55994012290e-02  9.68018936646e-02
       9.80195115931e-02  9.92524452697e-02  1.00500887343e-01  1.01765032884e-01
       1.03045079419e-01  1.04341226957e-01  1.05653678024e-01  1.06982637693e-01
       1.08328313617e-01  1.09690916060e-01  1.11070657932e-01  1.12467754821e-01
       1.13882425024e-01  1.15314889589e-01  1.16765372340e-01  1.18234099917e-01
       1.19721301813e-01  1.21227210407e-01  1.22752060998e-01  1.24296091849e-01
       1.25859544217e-01  1.27442662395e-01  1.29045693748e-01  1.30668888753e-01
       1.32312501038e-01  1.33976787421e-01  1.35662007949e-01  1.37368425942e-01
       1.39096308031e-01  1.40845924201e-01  1.42617547833e-01  1.44411455747e-01
       1.46227928245e-01  1.48067249155e-01  1.49929705873e-01  1.51815589413e-01
       1.53725194447e-01  1.55658819356e-01  1.57616766272e-01  1.59599341129e-01
       1.61606853707e-01  1.63639617685e-01  1.65697950686e-01  1.67782174330e-01
       1.69892614279e-01  1.72029600295e-01  1.74193466285e-01  1.76384550360e-01
       1.78603194879e-01  1.80849746511e-01  1.83124556283e-01  1.85427979640e-01
       1.87760376497e-01  1.90122111294e-01  1.92513553057e-01  1.94935075455e-01
       1.97387056856e-01  1.99869880385e-01  2.02383933990e-01  2.04929610496e-01
       2.07507307671e-01  2.10117428285e-01  2.12760380174e-01  2.15436576306e-01
       2.18146434841e-01  2.20890379201e-01  2.23668838131e-01  2.26482245773e-01
       2.29331041726e-01  2.32215671121e-01  2.35136584687e-01  2.38094238823e-01
       2.41089095669e-01  2.44121623175e-01  2.47192295183e-01  2.50301591489e-01
       2.53449997928e-01  2.56638006445e-01  2.59866115172e-01  2.63134828509e-01
       2.66444657198e-01  2.69796118407e-01  2.73189735808e-01  2.76626039661e-01
       2.80105566896e-01  2.83628861196e-01  2.87196473082e-01  2.90808960001e-01
       2.94466886412e-01  2.98170823873e-01  3.01921351132e-01  3.05719054216e-01
       3.09564526525e-01  3.13458368920e-01  3.17401189824e-01  3.21393605309e-01
       3.25436239199e-01  3.29529723163e-01  3.33674696817e-01  3.37871807821e-01
       3.42121711983e-01  3.46425073358e-01  3.50782564356e-01  3.55194865843e-01
       3.59662667250e-01  3.64186666681e-01  3.68767571020e-01  3.73406096042e-01
       3.78102966526e-01  3.82858916368e-01  3.87674688694e-01  3.92551035979e-01
       3.97488720163e-01  4.02488512767e-01  4.07551195021e-01  4.12677557978e-01
       4.17868402642e-01  4.23124540095e-01  4.28446791619e-01  4.33835988825e-01
       4.39292973787e-01  4.44818599170e-01  4.50413728364e-01  4.56079235619e-01
       4.61816006183e-01  4.67624936438e-01  4.73506934040e-01  4.79462918064e-01
       4.85493819144e-01  4.91600579622e-01  4.97784153690e-01  5.04045507545e-01
       5.10385619535e-01  5.16805480318e-01  5.23306093008e-01  5.29888473340e-01
       5.36553649824e-01  5.43302663907e-01  5.50136570137e-01  5.57056436325e-01
       5.64063343715e-01  5.71158387149e-01  5.78342675244e-01  5.85617330559e-01
       5.92983489772e-01  6.00442303863e-01  6.07994938285e-01  6.15642573153e-01
       6.23386403426e-01  6.31227639093e-01  6.39167505362e-01  6.47207242854e-01
       6.55348107795e-01  6.63591372212e-01  6.71938324130e-01  6.80390267778e-01
       6.88948523790e-01  6.97614429411e-01  7.06389338705e-01  7.15274622771e-01
       7.24271669951e-01  7.33381886054e-01  7.42606694569e-01  7.51947536890e-01
       7.61405872544e-01  7.70983179415e-01  7.80680953975e-01  7.90500711524e-01
       8.00443986416e-01  8.10512332311e-01  8.20707322406e-01  8.31030549690e-01
       8.41483627188e-01  8.52068188214e-01  8.62785886629e-01  8.73638397094e-01
       8.84627415336e-01  8.95754658411e-01  9.07021864974e-01  9.18430795549e-01
       9.29983232805e-01  9.41680981832e-01  9.53525870429e-01  9.65519749383e-01
       9.77664492762e-01  9.89961998207e-01  1.00241418723e+00  1.01502300551e+00
       1.02779042319e+00  1.04071843523e+00  1.05380906163e+00  1.06706434785e+00
       1.08048636504e+00  1.09407721042e+00  1.10783900759e+00  1.12177390686e+00
       1.13588408559e+00  1.15017174852e+00  1.16463912812e+00  1.17928848495e+00
       1.19412210801e+00  1.20914231508e+00  1.22435145310e+00  1.23975189852e+00
       1.25534605770e+00  1.27113636725e+00  1.28712529445e+00  1.30331533759e+00
       1.31970902641e+00  1.33630892245e+00  1.35311761947e+00  1.37013774387e+00
       1.38737195509e+00  1.40482294600e+00  1.42249344335e+00  1.44038620819e+00
       1.45850403631e+00  1.47684975865e+00  1.49542624177e+00  1.51423638829e+00
       1.53328313732e+00  1.55256946496e+00  1.57209838474e+00  1.59187294809e+00
       1.61189624482e+00  1.63217140363e+00  1.65270159254e+00  1.67349001943e+00
       1.69453993254e+00  1.71585462097e+00  1.73743741517e+00  1.75929168750e+00
       1.78142085274e+00  1.80382836861e+00  1.82651773633e+00  1.84949250116e+00
       1.87275625296e+00  1.89631262674e+00  1.92016530322e+00  1.94431800944e+00
       1.96877451930e+00  1.99353865418e+00  2.01861428354e+00  2.04400532548e+00
       2.06971574742e+00  2.09574956665e+00  2.12211085102e+00  2.14880371952e+00
       2.17583234298e+00  2.20320094466e+00  2.23091380098e+00  2.25897524212e+00
       2.28738965273e+00  2.31616147263e+00  2.34529519748e+00  2.37479537946e+00
       2.40466662806e+00  2.43491361072e+00  2.46554105358e+00  2.49655374224e+00
       2.52795652250e+00  2.55975430112e+00  2.59195204655e+00  2.62455478977e+00
       2.65756762500e+00  2.69099571059e+00  2.72484426973e+00  2.75911859134e+00
       2.79382403083e+00  2.82896601102e+00  2.86455002290e+00  2.90058162654e+00
       2.93706645197e+00  2.97401020001e+00  3.01141864319e+00  3.04929762667e+00
       3.08765306910e+00  3.12649096360e+00  3.16581737868e+00  3.20563845916e+00
       3.24596042718e+00  3.28678958311e+00  3.32813230661e+00  3.36999505755e+00
       3.41238437707e+00  3.45530688860e+00  3.49876929885e+00  3.54277839893e+00
       3.58734106534e+00  3.63246426109e+00  3.67815503677e+00  3.72442053166e+00
       3.77126797484e+00  3.81870468630e+00  3.86673807815e+00  3.91537565568e+00
       3.96462501863e+00  4.01449386231e+00  4.06498997881e+00  4.11612125828e+00
       4.16789569006e+00  4.22032136402e+00  4.27340647178e+00  4.32715930800e+00
       4.38158827167e+00  4.43670186741e+00  4.49250870685e+00  4.54901750992e+00
       4.60623710622e+00  4.66417643645e+00  4.72284455373e+00  4.78225062509e+00
       4.84240393283e+00  4.90331387604e+00  4.96498997202e+00  5.02744185778e+00
       5.09067929156e+00  5.15471215434e+00  5.21955045138e+00  5.28520431379e+00
       5.35168400014e+00  5.41899989799e+00  5.48716252561e+00  5.55618253353e+00
       5.62607070628e+00  5.69683796403e+00  5.76849536429e+00  5.84105410369e+00
       5.91452551968e+00  5.98892109232e+00  6.06425244606e+00  6.14053135158e+00
       6.21776972762e+00  6.29597964283e+00  6.37517331767e+00  6.45536312631e+00
       6.53656159857e+00  6.61878142188e+00  6.70203544325e+00  6.78633667130e+00
       6.87169827826e+00  6.95813360205e+00  7.04565614838e+00  7.13427959281e+00
       7.22401778295e+00  7.31488474056e+00  7.40689466380e+00  7.50006192939e+00
       7.59440109492e+00  7.68992690107e+00  7.78665427395e+00  7.88459832740e+00
       7.98377436538e+00  8.08419788434e+00  8.18588457568e+00  8.28885032813e+00
       8.39311123031e+00  8.49868357319e+00  8.60558385268e+00  8.71382877215e+00
       8.82343524509e+00  8.93442039774e+00  9.04680157176e+00  9.16059632693e+00
       9.27582244391e+00  9.39249792702e+00  9.51064100704e+00  9.63027014407e+00
       9.75140403040e+00  9.87406159345e+00  9.99826199871e+00  1.01240246528e+01
       1.02513692062e+01  1.03803155570e+01  1.05108838532e+01  1.06430944964e+01
       1.07769681448e+01  1.09125257164e+01  1.10497883923e+01  1.11887776201e+01
       1.13295151172e+01  1.14720228741e+01  1.16163231579e+01  1.17624385158e+01
       1.19103917787e+01  1.20602060645e+01  1.22119047820e+01  1.23655116346e+01
       1.25210506234e+01  1.26785460519e+01  1.28380225290e+01  1.29995049733e+01
       1.31630186167e+01  1.33285890085e+01  1.34962420194e+01  1.36660038456e+01
       1.38379010128e+01  1.40119603801e+01  1.41882091447e+01  1.43666748459e+01
       1.45473853692e+01  1.47303689511e+01  1.49156541832e+01  1.51032700165e+01
       1.52932457665e+01  1.54856111173e+01  1.56803961263e+01  1.58776312291e+01
       1.60773472441e+01  1.62795753773e+01  1.64843472273e+01  1.66916947901e+01
       1.69016504641e+01  1.71142470555e+01  1.73295177827e+01  1.75474962823e+01
       1.77682166140e+01  1.79917132656e+01  1.82180211591e+01  1.84471756554e+01
       1.86792125604e+01  1.89141681304e+01  1.91520790777e+01  1.93929825763e+01
       1.96369162679e+01  1.98839182675e+01  2.01340271699e+01  2.03872820550e+01
       2.06437224944e+01  2.09033885574e+01  2.11663208174e+01  2.14325603581e+01
       2.17021487799e+01  2.19751282067e+01  2.22515412919e+01  2.25314312258e+01
       2.28148417416e+01  2.31018171228e+01  2.33924022100e+01  2.36866424076e+01
       2.39845836913e+01  2.42862726150e+01  2.45917563182e+01  2.49010825333e+01
       2.52142995933e+01  2.55314564389e+01  2.58526026264e+01  2.61777883358e+01
       2.65070643778e+01  2.68404822026e+01  2.71780939073e+01  2.75199522444e+01
       2.78661106302e+01  2.82166231523e+01  2.85715445793e+01  2.89309303682e+01
       2.92948366739e+01  2.96633203574e+01  3.00364389950e+01  3.04142508874e+01
       3.07968150683e+01  3.11841913143e+01  3.15764401536e+01  3.19736228758e+01
       3.23758015418e+01  3.27830389926e+01  3.31953988599e+01  3.36129455758e+01
       3.40357443829e+01  3.44638613442e+01  3.48973633541e+01  3.53363181479e+01
       3.57807943134e+01  3.62308613007e+01  3.66865894339e+01  3.71480499212e+01
       3.76153148670e+01  3.80884572822e+01  3.85675510964e+01  3.90526711689e+01
       3.95438933008e+01  4.00412942464e+01  4.05449517257e+01  4.10549444362e+01
       4.15713520653e+01  4.20942553027e+01  4.26237358532e+01  4.31598764491e+01
       4.37027608635e+01  4.42524739232e+01  4.48091015220e+01  4.53727306341e+01
       4.59434493276e+01  4.65213467786e+01  4.71065132847e+01  4.76990402793e+01
       4.82990203459e+01  4.89065472328e+01  4.95217158672e+01  5.01446223705e+01
       5.07753640730e+01  5.14140395294e+01  5.20607485342e+01  5.27155921368e+01
       5.33786726579e+01  5.40500937052e+01  5.47299601897e+01  5.54183783417e+01
       5.61154557282e+01  5.68213012687e+01  5.75360252532e+01  5.82597393587e+01
       5.89925566670e+01  5.97345916823e+01  6.04859603490e+01  6.12467800702e+01
       6.20171697253e+01  6.27972496894e+01  6.35871418515e+01  6.43869696339e+01
       6.51968580113e+01  6.60169335304e+01  6.68473243296e+01  6.76881601593e+01
       6.85395724018e+01  6.94016940919e+01  7.02746599378e+01  7.11586063424e+01
       7.20536714240e+01  7.29599950383e+01  7.38777188003e+01  7.48069861061e+01
       7.57479421558e+01  7.67007339755e+01  7.76655104409e+01  7.86424223004e+01
       7.96316221983e+01  8.06332646993e+01  8.16475063118e+01  8.26745055134e+01
       8.37144227747e+01  8.47674205848e+01  8.58336634768e+01  8.69133180534e+01
       8.80065530128e+01  8.91135391751e+01  9.02344495093e+01  9.13694591597e+01
       9.25187454740e+01  9.36824880306e+01  9.48608686665e+01  9.60540715061e+01
       9.72622829898e+01  9.84856919031e+01  9.97244894062e+01
    </PP_R>
    <PP_RAB type="real" size="1151" columns="4">
       7.12407785589e-07  7.21368772398e-07  7.30442474544e-07  7.39630309813e-07
       7.48933713823e-07  7.58354140250e-07  7.67893061054e-07  7.77551966711e-07
       7.87332366444e-07  7.97235788462e-07  8.07263780193e-07  8.17417908533e-07
       8.27699760084e-07  8.38110941406e-07  8.48653079269e-07  8.59327820901e-07
       8.70136834254e-07  8.81081808257e-07  8.92164453086e-07  9.03386500425e-07
       9.14749703743e-07  9.26255838563e-07  9.37906702743e-07  9.49704116753e-07
       9.61649923964e-07  9.73745990931e-07  9.85994207691e-07  9.98396488052e-07
       1.01095476990e-06  1.02367101548e-06  1.03654721174e-06  1.04958537061e-06
       1.06278752933e-06  1.07615575077e-06  1.08969212373e-06  1.10339876330e-06
       1.11727781118e-06  1.13133143598e-06  1.14556183363e-06  1.15997122764e-06
       1.17456186951e-06  1.18933603907e-06  1.20429604480e-06  1.21944422424e-06
       1.23478294433e-06  1.25031460175e-06  1.26604162338e-06  1.28196646659e-06
       1.29809161967e-06  1.31441960220e-06  1.33095296547e-06  1.34769429285e-06
       1.36464620020e-06  1.38181133630e-06  1.39919238324e-06  1.41679205682e-06
       1.43461310705e-06  1.45265831850e-06  1.47093051076e-06  1.48943253891e-06
       1.50816729393e-06  1.52713770315e-06  1.54634673074e-06  1.56579737816e-06
       1.58549268461e-06  1.60543572751e-06  1.62562962301e-06  1.64607752644e-06
       1.66678263284e-06  1.68774817742e-06  1.70897743608e-06  1.73047372594e-06
       1.75224040585e-06  1.77428087688e-06  1.79659858291e-06  1.81919701112e-06
       1.84207969257e-06  1.86525020272e-06  1.88871216200e-06  1.91246923641e-06
       1.93652513802e-06  1.96088362563e-06  1.98554850529e-06  2.01052363094e-06
       2.03581290501e-06  2.06142027898e-06  2.08734975406e-06  2.11360538179e-06
       2.14019126466e-06  2.16711155677e-06  2.19437046447e-06  2.22197224702e-06
       2.24992121726e-06  2.27822174226e-06  2.30687824404e-06  2.33589520024e-06
       2.36527714482e-06  2.39502866877e-06  2.42515442082e-06  2.45565910818e-06
       2.48654749727e-06  2.51782441447e-06  2.54949474686e-06  2.58156344298e-06
       2.61403551365e-06  2.64691603268e-06  2.68021013773e-06  2.71392303107e-06
       2.74805998040e-06  2.78262631969e-06  2.81762745001e-06  2.85306884035e-06
       2.88895602850e-06  2.92529462191e-06  2.96209029855e-06  2.99934880783e-06
       3.03707597147e-06  3.07527768440e-06  3.11395991573e-06  3.15312870962e-06
       3.19279018630e-06  3.23295054294e-06  3.27361605468e-06  3.31479307558e-06
       3.35648803965e-06  3.39870746180e-06  3.44145793891e-06  3.48474615083e-06
       3.52857886142e-06  3.57296291963e-06  3.61790526057e-06  3.66341290657e-06
       3.70949296829e-06  3.75615264583e-06  3.80339922987e-06  3.85124010277e-06
       3.89968273977e-06  3.94873471014e-06  3.99840367834e-06  4.04869740525e-06
       4.09962374936e-06  4.15119066803e-06  4.20340621868e-06  4.25627856011e-06
       4.30981595372e-06  4.36402676484e-06  4.41891946403e-06  4.47450262837e-06
       4.53078494285e-06  4.58777520169e-06  4.64548230974e-06  4.70391528386e-06
       4.76308325431e-06  4.82299546621e-06  4.88366128096e-06  4.94509017772e-06
       5.00729175489e-06  5.07027573158e-06  5.13405194916e-06  5.19863037281e-06
       5.26402109304e-06  5.33023432726e-06  5.39728042145e-06  5.46516985168e-06
       5.53391322582e-06  5.60352128516e-06  5.67400490611e-06  5.74537510186e-06
       5.81764302416e-06  5.89081996502e-06  5.96491735848e-06  6.03994678242e-06
       6.11591996033e-06  6.19284876318e-06  6.27074521125e-06  6.34962147601e-06
       6.42948988205e-06  6.51036290896e-06  6.59225319332e-06  6.67517353066e-06
       6.75913687744e-06  6.84415635311e-06  6.93024524213e-06  7.01741699607e-06
       7.10568523570e-06  7.19506375310e-06  7.28556651385e-06  7.37720765919e-06
       7.47000150824e-06  7.56396256022e-06  7.65910549674e-06  7.75544518407e-06
       7.85299667549e-06  7.95177521363e-06  8.05179623281e-06  8.15307536154e-06
       8.25562842488e-06  8.35947144696e-06  8.46462065347e-06  8.57109247417e-06
       8.67890354550e-06  8.78807071317e-06  8.89861103478e-06  9.01054178246e-06
       9.12388044562e-06  9.23864473367e-06  9.35485257875e-06  9.47252213858e-06
       9.59167179927e-06  9.71232017819e-06  9.83448612690e-06  9.95818873408e-06
       1.00834473285e-05  1.02102814821e-05  1.03387110129e-05  1.04687559884e-05
       1.06004367283e-05  1.07337738080e-05  1.08687880617e-05  1.10055005856e-05
       1.11439327414e-05  1.12841061594e-05  1.14260427419e-05  1.15697646668e-05
       1.17152943910e-05  1.18626546538e-05  1.20118684805e-05  1.21629591861e-05
       1.23159503788e-05  1.24708659638e-05  1.26277301470e-05  1.27865674387e-05