<UPF version="2.0.1">
  <PP_INFO>
Converted from CP2K GTH format
       <PP_INPUTFILE>
S 
    2    4    0    0
    0.42000000000000       1   -5.98626038000000
       2
    0.36482035000000       2   13.14354448000000   -4.24183045000000
                                                    5.47617957000000
    0.40948048000000       1    3.70089057000000
       </PP_INPUTFILE>
  </PP_INFO>
  <PP_HEADER
    generated="Generated in analytical, separable form"
    author="Goedecker/Hartwigsen/Hutter/Teter"
    date="Phys.Rev.B58, 3641 (1998); B54, 1703 (1996)"
    comment="This file generated by CP2K ATOM code"
    element="S"
    pseudo_type="NC"
    relativistic="scalar"
    is_ultrasoft="F"
    is_paw="F"
    is_coulomb="F"
    has_so="F"
    has_wfc="T"
    has_gipaw="F"
    paw_as_gipaw="F"
    core_correction="F"
    functional="PBE"
    z_valence="6.0000000000"
    total_psenergy="-20.1333380000"
    wfc_cutoff="0.0000000000"
    rho_cutoff="0.0000000000"
    l_max="1"
    l_max_rho="0"
    l_local="-3"
    mesh_size="400"
    number_of_wfc="2"
    number_of_proj="3"/>
  <PP_MESH dx="1.0000000000000000e+00" mesh="400" xmin="1.0000000000000000e+00" rmax="3.7538232999999998e+01" zmesh="1.6000000000000000e+01">
    <PP_R type="real" size="400" columns="4">
       7.22853190584e-12  2.31286432529e-10  1.75607452138e-09  7.39856944537e-09
       2.25727037849e-08  5.61500555707e-08  1.21316292751e-07  2.36422320493e-07
       4.25829084447e-07  7.20744989012e-07  1.16005490915e-06  1.79113976717e-06
       2.67068567771e-06  3.86548166306e-06  5.45320496294e-06  7.52319298002e-06
       1.01772009232e-05  1.35301442221e-05  1.77108248203e-05  2.28626404723e-05
       2.91442761927e-05  3.67303770427e-05  4.58122014526e-05  5.65982543296e-05
       6.93148992117e-05  8.42069487776e-05  1.01538233049e-04  1.21592144665e-04
       1.44672160631e-04  1.71102340018e-04  2.01227797072e-04  2.35415149303e-04
       2.74052940106e-04  3.17552035547e-04  3.66345994967e-04  4.20891415136e-04
       4.81668247687e-04  5.49180089643e-04  6.23954446896e-04  7.06542970501e-04
       7.97521665771e-04  8.97491074118e-04  1.00707642770e-03  1.12692777695e-03
       1.25772009112e-03  1.40015333198e-03  1.55495250098e-03  1.72286765998e-03
       1.90467392601e-03  2.10117144037e-03  2.31318531236e-03  2.54156553820e-03
       2.78718689553e-03  3.05094881400e-03  3.33377522260e-03  3.63661437407e-03
       3.96043864728e-03  4.30624432799e-03  4.67505136882e-03  5.06790312903e-03
       5.48586609482e-03  5.93002958103e-03  6.40150541486e-03  6.90142760243e-03
       7.43095197903e-03  7.99125584389e-03  8.58353758021e-03  9.20901626139e-03
       9.86893124424e-03  1.05645417501e-02  1.12971264349e-02  1.20679829481e-02
       1.28784274833e-02  1.37297943191e-02  1.46234353530e-02  1.55607196278e-02
       1.65430328521e-02  1.75717769162e-02  1.86483694024e-02  1.97742430934e-02
       2.09508454764e-02  2.21796382464e-02  2.34620968078e-02  2.47997097761e-02
       2.61939784799e-02  2.76464164637e-02  2.91585489930e-02  3.07319125619e-02
       3.23680544040e-02  3.40685320070e-02  3.58349126321e-02  3.76687728386e-02
       3.95716980139e-02  4.15452819102e-02  4.35911261879e-02  4.57108399664e-02
       4.79060393828e-02  5.01783471587e-02  5.25293921763e-02  5.49608090629e-02
       5.74742377858e-02  6.00713232566e-02  6.27537149461e-02  6.55230665091e-02
       6.83810354214e-02  7.13292826268e-02  7.43694721957e-02  7.75032709962e-02
       8.07323483757e-02  8.40583758557e-02  8.74830268379e-02  9.10079763235e-02
       9.46349006441e-02  9.83654772053e-02  1.02201384244e-01  1.06144300596e-01
       1.10195905480e-01  1.14357878290e-01  1.18631898405e-01  1.23019645005e-01
       1.27522796911e-01  1.32143032424e-01  1.36882029186e-01  1.41741464052e-01
       1.46723012974e-01  1.51828350893e-01  1.57059151655e-01  1.62417087924e-01
       1.67903831121e-01  1.73521051369e-01  1.79270417446e-01  1.85153596759e-01
       1.91172255326e-01  1.97328057764e-01  2.03622667296e-01  2.10057745770e-01
       2.16634953680e-01  2.23355950208e-01  2.30222393274e-01  2.37235939592e-01
       2.44398244747e-01  2.51710963269e-01  2.59175748728e-01  2.66794253839e-01
       2.74568130569e-01  2.82499030260e-01  2.90588603761e-01  2.98838501574e-01
       3.07250373996e-01  3.15825871286e-01  3.24566643833e-01  3.33474342335e-01
       3.42550617983e-01  3.51797122663e-01  3.61215509160e-01  3.70807431370e-01
       3.80574544524e-01  3.90518505419e-01  4.00640972657e-01  4.10943606896e-01
       4.21428071099e-01  4.32096030808e-01  4.42949154406e-01  4.53989113405e-01
       4.65217582730e-01  4.76636241017e-01  4.88246770917e-01  5.00050859406e-01
       5.12050198107e-01  5.24246483615e-01  5.36641417835e-01  5.49236708323e-01
       5.62034068637e-01  5.75035218695e-01  5.88241885146e-01  6.01655801736e-01
       6.15278709697e-01  6.29112358134e-01  6.43158504427e-01  6.57418914630e-01
       6.71895363892e-01  6.86589636877e-01  7.01503528194e-01  7.16638842840e-01
       7.31997396644e-01  7.47581016724e-01  7.63391541957e-01  7.79430823446e-01
       7.95700725012e-01  8.12203123679e-01  8.28939910182e-01  8.45912989478e-01
       8.63124281265e-01  8.80575720517e-01  8.98269258026e-01  9.16206860955e-01
       9.34390513401e-01  9.52822216969e-01  9.71503991362e-01  9.90437874975e-01
       1.00962592551e+00  1.02907022059e+00  1.04877285840e+00  1.06873595834e+00
       1.08896166167e+00  1.10945213221e+00  1.13020955700e+00  1.15123614703e+00
       1.17253413794e+00  1.19410579078e+00  1.21595339271e+00  1.23807925785e+00
       1.26048572797e+00  1.28317517335e+00  1.30614999360e+00  1.32941261848e+00
       1.35296550876e+00  1.37681115710e+00  1.40095208896e+00  1.42539086350e+00
       1.45013007454e+00  1.47517235154e+00  1.50052036053e+00  1.52617680519e+00
       1.55214442785e+00  1.57842601057e+00  1.60502437624e+00  1.63194238966e+00
       1.65918295875e+00  1.68674903569e+00  1.71464361814e+00  1.74286975047e+00
       1.77143052508e+00  1.80032908367e+00  1.82956861859e+00  1.85915237427e+00
       1.88908364858e+00  1.91936579436e+00  1.95000222087e+00  1.98099639540e+00
       2.01235184480e+00  2.04407215718e+00  2.07616098357e+00  2.10862203968e+00
       2.14145910766e+00  2.17467603802e+00  2.20827675146e+00  2.24226524089e+00
       2.27664557341e+00  2.31142189244e+00  2.34659841990e+00  2.38217945835e+00
       2.41816939337e+00  2.45457269592e+00  2.49139392475e+00  2.52863772900e+00
       2.56630885075e+00  2.60441212779e+00  2.64295249638e+00  2.68193499418e+00
       2.72136476318e+00  2.76124705291e+00  2.80158722354e+00  2.84239074930e+00
       2.88366322184e+00  2.92541035387e+00  2.96763798281e+00  3.01035207467e+00
       3.05355872799e+00  3.09726417797e+00  3.14147480079e+00  3.18619711802e+00
       3.23143780123e+00  3.27720367684e+00  3.32350173102e+00  3.37033911495e+00
       3.41772315014e+00  3.46566133409e+00  3.51416134605e+00  3.56323105315e+00
       3.61287851667e+00  3.66311199862e+00  3.71393996861e+00  3.76537111099e+00
       3.81741433227e+00  3.87007876892e+00  3.92337379544e+00  3.97730903285e+00
       4.03189435749e+00  4.08713991025e+00  4.14305610626e+00  4.19965364490e+00
       4.25694352037e+00  4.31493703276e+00  4.37364579952e+00  4.43308176763e+00
       4.49325722620e+00  4.55418481982e+00  4.61587756241e+00  4.67834885190e+00
       4.74161248552e+00  4.80568267591e+00  4.87057406808e+00  4.93630175712e+00
       5.00288130699e+00  5.07032877013e+00  5.13866070824e+00  5.20789421408e+00
       5.27804693449e+00  5.34913709465e+00  5.42118352367e+00  5.49420568167e+00
       5.56822368827e+00  5.64325835285e+00  5.71933120643e+00  5.79646453548e+00
       5.87468141775e+00  5.95400576017e+00  6.03446233910e+00  6.11607684305e+00
       6.19887591802e+00  6.28288721572e+00  6.36813944483e+00  6.45466242560e+00
       6.54248714801e+00  6.63164583376e+00  6.72217200241e+00  6.81410054208e+00
       6.90746778497e+00  7.00231158817e+00  7.09867142021e+00  7.19658845383e+00
       7.29610566552e+00  7.39726794245e+00  7.50012219742e+00  7.60471749259e+00
       7.71110517277e+00  7.81933900930e+00  7.92947535534e+00  8.04157331379e+00
       8.15569491921e+00  8.27190533484e+00  8.39027306665e+00  8.51087019584e+00
       8.63377263206e+00  8.75906038931e+00  8.88681788726e+00  9.01713428073e+00
       9.15010382043e+00  9.28582624889e+00  9.42440723554e+00  9.56595885564e+00
       9.71060011879e+00  9.85845755290e+00  1.00096658511e+01  1.01643685896e+01
       1.03227190264e+01  1.04848809919e+01  1.06510298839e+01  1.08213537828e+01
       1.09960547046e+01  1.11753500125e+01  1.13594740119e+01  1.15486797575e+01
       1.17432411096e+01  1.19434550779e+01  1.21496445077e+01  1.23621611644e+01
       1.25813892956e+01  1.28077497563e+01  1.30417048124e+01  1.32837637582e+01
       1.35344895202e+01  1.37945064614e+01  1.40645096609e+01  1.43452760122e+01
       1.46376775900e+01  1.49426978619e+01  1.52614515069e+01  1.55952088472e+01
       1.59454262445e+01  1.63137843006e+01  1.67022363949e+01  1.71130711103e+01
       1.75489936059e+01  1.80132332876e+01  1.85096886807e+01  1.90431260874e+01
       1.96194579189e+01  2.02461424280e+01  2.09327744956e+01  2.16919887596e+01
       2.25408969076e+01  2.35034897804e+01  2.46149037070e+01  2.59296118995e+01
       2.75388728474e+01  2.96137651572e+01  3.25383656839e+01  3.75382328098e+01
    </PP_R>
    <PP_RAB type="real" size="400" columns="4">
       3.61412465855e-11  5.78188964494e-10  2.92648282218e-09  9.24648195069e-09
       2.25661064928e-08  4.67720198933e-08  8.66048561826e-08  1.47653397850e-07
       2.36347711306e-07  3.59951248387e-07  5.26551923849e-07  7.45052180357e-07
       1.02515805405e-06  1.37736725537e-06  1.81295628150e-06  2.34396657848e-06
       2.98318977251e-06  3.74415199212e-06  4.64109730401e-06  5.68897028740e-06
       6.90339777347e-06  8.30066977780e-06  9.89771965563e-06  1.17121035113e-05
       1.37619788945e-05  1.60660828183e-05  1.86437091343e-05  2.15146853016e-05
       2.46993485900e-05  2.82185217549e-05  3.20934882265e-05  3.63459668547e-05
       4.09980862524e-05  4.60723587821e-05  5.15916542287e-05  5.75791732062e-05
       6.40584203412e-05  7.10531772822e-05  7.85874755801e-05  8.66855694856e-05
       9.53719087129e-05  1.04671111214e-04  1.14607936011e-04  1.25207256136e-04
       1.36494031713e-04  1.48493283248e-04  1.61230065148e-04  1.74729439530e-04
       1.89016450357e-04  2.04116097938e-04  2.20053313843e-04  2.36852936265e-04
       2.54539685870e-04  2.73138142168e-04  2.92672720446e-04  3.13167649293e-04
       3.34646948751e-04  3.57134409115e-04  3.80653570425e-04  4.05227702659e-04
       4.30879786667e-04  4.57632495857e-04  4.85508178657e-04  5.14528841780e-04
       5.44716134295e-04  5.76091332528e-04  6.08675325798e-04  6.42488603009e-04
       6.77551240098e-04  7.13882888342e-04  7.51502763545e-04  7.90429636085e-04
       8.30681821840e-04  8.72277173981e-04  9.15233075636e-04  9.59566433411e-04
       1.00529367177e-03  1.05243072828e-03  1.10099304962e-03  1.15099558855e-03
       1.20245280156e-03  1.25537864739e-03  1.30978658629e-03  1.36568958013e-03
       1.42310009316e-03  1.48203009352e-03  1.54249105553e-03  1.60449396261e-03
       1.66804931085e-03  1.73316711327e-03  1.79985690471e-03  1.86812774726e-03
       1.93798823631e-03  2.00944650717e-03  2.08251024216e-03  2.15718667826e-03
       2.23348261517e-03  2.31140442393e-03  2.39095805584e-03  2.47214905185e-03
       2.55498255237e-03  2.63946330735e-03  2.72559568672e-03  2.81338369116e-03
       2.90283096313e-03  2.99394079816e-03  3.08671615638e-03  3.18115967427e-03
       3.27727367655e-03  3.37506018837e-03  3.47452094746e-03  3.57565741662e-03
       3.67847079612e-03  3.78296203635e-03  3.88913185047e-03  3.99698072711e-03
       4.10650894313e-03  4.21771657643e-03  4.33060351870e-03  4.44516948823e-03
       4.56141404268e-03  4.67933659180e-03  4.79893641013e-03  4.92021264962e-03
       5.04316435224e-03  5.16779046239e-03  5.29408983939e-03  5.42206126976e-03
       5.55170347939e-03  5.68301514572e-03  5.81599490964e-03  5.95064138743e-03
       6.08695318243e-03  6.22492889668e-03  6.36456714239e-03  6.50586655324e-03
       6.64882579562e-03  6.79344357961e-03  6.93971866996e-03  7.08764989676e-03
       7.23723616609e-03  7.38847647051e-03  7.54136989931e-03  7.69591564869e-03
       7.85211303184e-03  8.00996148875e-03  8.16946059599e-03  8.33061007627e-03
       8.49340980796e-03  8.65785983438e-03  8.82396037303e-03  8.99171182463e-03
       9.16111478213e-03  9.33217003952e-03  9.50487860054e-03  9.67924168738e-03
       9.85526074909e-03  1.00329374701e-02  1.02122737786e-02  1.03932718546e-02
       1.05759341383e-02  1.07602633380e-02  1.09462624384e-02  1.11339347085e-02
       1.13232837093e-02  1.15143133018e-02  1.17070276553e-02  1.19014312544e-02
       1.20975289074e-02  1.22953257540e-02  1.24948272730e-02  1.26960392898e-02
       1.28989679849e-02  1.31036199010e-02  1.33100019513e-02  1.35181214271e-02
       1.37279860059e-02  1.39396037594e-02  1.41529831613e-02  1.43681330957e-02
       1.45850628651e-02  1.48037821990e-02  1.50243012616e-02  1.52466306612e-02
       1.54707814582e-02  1.56967651740e-02  1.59245938001e-02  1.61542798069e-02
       1.63858361531e-02  1.66192762949e-02  1.68546141958e-02  1.70918643364e-02
       1.73310417239e-02  1.75721619032e-02  1.78152409666e-02  1.80602955647e-02
       1.83073429176e-02  1.85564008260e-02  1.88074876825e-02  1.90606224840e-02
       1.93158248431e-02  1.95731150013e-02  1.98325138416e-02  2.00940429014e-02
       2.03577243866e-02  2.06235811853e-02  2.08916368820e-02  2.11619157732e-02
       2.14344428818e-02  2.17092439735e-02  2.19863455727e-02  2.22657749796e-02
       2.25475602874e-02  2.28317304000e-02  2.31183150508e-02  2.34073448215e-02
       2.36988511620e-02  2.39928664106e-02  2.42894238152e-02  2.45885575550e-02
       2.48903027631e-02  2.51946955496e-02  2.55017730261e-02  2.58115733300e-02
       2.61241356509e-02  2.64395002570e-02  2.67577085230e-02  2.70788029585e-02
       2.74028272380e-02  2.77298262314e-02  2.80598460359e-02  2.83929340093e-02
       2.87291388041e-02  2.90685104029e-02  2.94111001556e-02  2.97569608172e-02
       3.01061465878e-02  3.04587131537e-02  3.08147177300e-02  3.11742191050e-02
       3.15372776865e-02  3.19039555494e-02  3.22743164852e-02  3.26484260542e-02
       3.30263516388e-02  3.34081624992e-02  3.37939298318e-02  3.41837268292e-02
       3.45776287430e-02  3.49757129491e-02  3.53780590159e-02  3.57847487745e-02
       3.61958663928e-02  3.66114984521e-02  3.70317340266e-02  3.74566647672e-02
       3.78863849879e-02  3.83209917562e-02  3.87605849875e-02  3.92052675434e-02
       3.96551453346e-02  4.01103274272e-02  4.05709261555e-02  4.10370572379e-02
       4.15088398991e-02  4.19863969978e-02  4.24698551591e-02  4.29593449144e-02
       4.34550008465e-02  4.39569617420e-02  4.44653707506e-02  4.49803755518e-02
       4.55021285297e-02  4.60307869559e-02  4.65665131809e-02  4.71094748354e-02
       4.76598450408e-02  4.82178026302e-02  4.87835323804e-02  4.93572252552e-02
       4.99390786613e-02  5.05292967168e-02  5.11280905335e-02  5.17356785135e-02
       5.23522866620e-02  5.29781489152e-02  5.36135074867e-02  5.42586132312e-02
       5.49137260290e-02  5.55791151901e-02  5.62550598814e-02  5.69418495762e-02
       5.76397845305e-02  5.83491762843e-02  5.90703481923e-02  5.98036359845e-02
       6.05493883598e-02  6.13079676134e-02  6.20797503018e-02  6.28651279469e-02
       6.36645077828e-02  6.44783135474e-02  6.53069863229e-02  6.61509854281e-02
       6.70107893669e-02  6.78868968360e-02  6.87798277976e-02  6.96901246213e-02
       7.06183532999e-02  7.15651047463e-02  7.25309961761e-02  7.35166725840e-02
       7.45228083204e-02  7.55501087773e-02  7.65993121914e-02  7.76711915748e-02
       7.87665567834e-02  7.98862567351e-02  8.10311817903e-02  8.22022663084e-02
       8.34004913967e-02  8.46268878675e-02  8.58825394232e-02  8.71685860891e-02
       8.84862279179e-02  8.98367289899e-02  9.12214217379e-02  9.26417116279e-02
       9.40990822294e-02  9.55951007141e-02  9.71314238267e-02  9.87098043742e-02
       1.00332098288e-01  1.02000272319e-01  1.03716412432e-01  1.05482732973e-01
       1.07301586698e-01  1.09175475763e-01  1.11107063760e-01  1.13099188958e-01
       1.15154878853e-01  1.17277366205e-01  1.19470106734e-01  1.21736798670e-01
       1.24081404414e-01  1.26508174543e-01  1.29021674500e-01  1.31626814292e-01
       1.34328881621e-01  1.37133578915e-01  1.40047064795e-01  1.43076000627e-01
       1.46227602890e-01  1.49509702229e-01  1.52930810211e-01  1.56500194981e-01
       1.60227967241e-01  1.64125178212e-01  1.68203931607e-01  1.72477511980e-01
       1.76960532329e-01  1.81669104410e-01  1.86621035940e-01  1.91836059782e-01
       1.97336101321e-01  2.03145591685e-01  2.09291836235e-01  2.15805450050e-01
       2.22720875073e-01  2.30076997349e-01  2.37917887698e-01  2.46293695651e-01
       2.55261734930e-01  2.64887810143e-01  2.75247849657e-01  2.86429930338e-01
       2.98536808495e-01  3.11689111057e-01  3.26029397081e-01  3.41727379682e-01
       3.58986714553e-01  3.78053932212e-01  3.99230347686e-01  4.22888173580e-01
       4.49492675599e-01  4.79633190252e-01  5.14067435763e-01  5.53786274450e-01
       6.00110855785e-01  6.54842747474e-01  7.20504143675e-01  8.00738214302e-01
       9.01009712949e-01  1.02990611082e+00  1.20173985634e+00  1.44227336796e+00
       1.80303143236e+00  2.40423865599e+00  3.60656595712e+00  7.21335303926e+00
    </PP_RAB>
  </PP_MESH>
  <PP_LOCAL type="real" size="400" columns="4">
    -3.47692224972e+01 -3.47692224972e+01 -3.47692224972e+01 -3.47692224972e+01
    -3.47692224972e+01 -3.47692224972e+01 -3.47692224972e+01 -3.47692224972e+01
    -3.47692224972e+01 -3.47692224972e+01 -3.47692224971e+01 -3.47692224971e+01
    -3.47692224968e+01 -3.47692224964e+01 -3.47692224956e+01 -3.47692224941e+01
    -3.47692224915e+01 -3.47692224871e+01 -3.47692224798e+01 -3.47692224682e+01
    -3.47692224501e+01 -3.47692224224e+01 -3.47692223808e+01 -3.47692223195e+01
    -3.47692222307e+01 -3.47692221039e+01 -3.47692219253e+01 -3.47692216770e+01
    -3.47692213361e+01 -3.47692208731e+01 -3.47692202509e+01 -3.47692194228e+01
    -3.47692183308e+01 -3.47692169032e+01 -3.47692150520e+01 -3.47692126699e+01
    -3.47692096269e+01 -3.47692057662e+01 -3.47692008999e+01 -3.47691948042e+01
    -3.47691872132e+01 -3.47691778131e+01 -3.47691662348e+01 -3.47691520465e+01
    -3.47691347444e+01 -3.47691137435e+01 -3.47690883670e+01 -3.47690578342e+01
    -3.47690212485e+01 -3.47689775827e+01 -3.47689256644e+01 -3.47688641591e+01
    -3.47687915521e+01 -3.47687061299e+01 -3.47686059581e+01 -3.47684888599e+01
    -3.47683523911e+01 -3.47681938144e+01 -3.47680100713e+01 -3.47677977525e+01
    -3.47675530659e+01 -3.47672718029e+01 -3.47669493021e+01 -3.47665804115e+01
    -3.47661594479e+01 -3.47656801538e+01 -3.47651356527e+01 -3.47645184012e+01
    -3.47638201387e+01 -3.47630318352e+01 -3.47621436357e+01 -3.47611448022e+01
    -3.47600236535e+01 -3.47587675017e+01 -3.47573625861e+01 -3.47557940046e+01
    -3.47540456424e+01 -3.47521000973e+01 -3.47499386034e+01 -3.47475409508e+01
    -3.47448854033e+01 -3.47419486138e+01 -3.47387055361e+01 -3.47351293350e+01
    -3.47311912937e+01 -3.47268607185e+01 -3.47221048415e+01 -3.47168887216e+01
    -3.47111751423e+01 -3.47049245091e+01 -3.46980947441e+01 -3.46906411799e+01
    -3.46825164521e+01 -3.46736703903e+01 -3.46640499094e+01 -3.46535989001e+01
    -3.46422581192e+01 -3.46299650804e+01 -3.46166539467e+01 -3.46022554228e+01
    -3.45866966503e+01 -3.45699011050e+01 -3.45517884969e+01 -3.45322746740e+01
    -3.45112715307e+01 -3.44886869205e+01 -3.44644245751e+01 -3.44383840304e+01
    -3.44104605593e+01 -3.43805451138e+01 -3.43485242769e+01 -3.43142802245e+01
    -3.42776906996e+01 -3.42386290003e+01 -3.41969639813e+01 -3.41525600715e+01
    -3.41052773095e+01 -3.40549713969e+01 -3.40014937728e+01 -3.39446917094e+01
    -3.38844084319e+01 -3.38204832629e+01 -3.37527517944e+01 -3.36810460882e+01
    -3.36051949067e+01 -3.35250239763e+01 -3.34403562844e+01 -3.33510124124e+01
    -3.32568109058e+01 -3.31575686840e+01 -3.30531014901e+01 -3.29432243825e+01
    -3.28277522708e+01 -3.27065004950e+01 -3.25792854507e+01 -3.24459252602e+01
    -3.23062404901e+01 -3.21600549155e+01 -3.20071963305e+01 -3.18474974047e+01
    -3.16807965846e+01 -3.15069390379e+01 -3.13257776397e+01 -3.11371739972e+01
    -3.09409995102e+01 -3.07371364635e+01 -3.05254791466e+01 -3.03059349966e+01
    -3.00784257565e+01 -2.98428886440e+01 -2.95992775233e+01 -2.93475640699e+01
    -2.90877389221e+01 -2.88198128075e+01 -2.85438176347e+01 -2.82598075391e+01
    -2.79678598706e+01 -2.76680761111e+01 -2.73605827091e+01 -2.70455318164e+01
    -2.67231019160e+01 -2.63934983245e+01 -2.60569535579e+01 -2.57137275446e+01
    -2.53641076744e+01 -2.50084086705e+01 -2.46469722718e+01 -2.42801667156e+01
    -2.39083860124e+01 -2.35320490026e+01 -2.31515981914e+01 -2.27674983584e+01
    -2.23802349382e+01 -2.19903121765e+01 -2.15982510637e+01 -2.12045870543e+01
    -2.08098675823e+01 -2.04146493866e+01 -2.00194956641e+01 -1.96249730698e+01
    -1.92316485894e+01 -1.88400863115e+01 -1.84508441279e+01 -1.80644703980e+01
    -1.76815006101e+01 -1.73024540784e+01 -1.69278307140e+01 -1.65581079094e+01
    -1.61937375775e+01 -1.58351433828e+01 -1.54827182045e+01 -1.51368218662e+01
    -1.47977791670e+01 -1.44658782425e+01 -1.41413692822e+01 -1.38244636229e+01
    -1.35153332337e+01 -1.32141106007e+01 -1.29208890150e+01 -1.26357232580e+01
    -1.23586306735e+01 -1.20895926094e+01 -1.18285562024e+01 -1.15754364772e+01
    -1.13301187226e+01 -1.10924611039e+01 -1.08622974664e+01 -1.06394402820e+01
    -1.04236836901e+01 -1.02148065802e+01 -1.00125756684e+01 -9.81674851861e+00
    -9.62707646203e+00 -9.44330737491e+00 -9.26518827623e+00 -9.09246771437e+00
    -8.92489791749e+00 -8.76223668843e+00 -8.60424903221e+00 -8.45070851045e+00
    -8.30139832359e+00 -8.15611212788e+00 -8.01465459941e+00 -7.87684176216e+00
    -7.74250110106e+00 -7.61147148367e+00 -7.48360291657e+00 -7.35875616320e+00
    -7.23680225027e+00 -7.11762188936e+00 -7.00110483855e+00 -6.88714922766e+00
    -6.77566086749e+00 -6.66655256130e+00 -6.55974343366e+00 -6.45515828879e+00
    -6.35272700747e+00 -6.25238398936e+00 -6.15406764439e+00 -6.05771993517e+00
    -5.96328597030e+00 -5.87071364715e+00 -5.77995334109e+00 -5.69095763790e+00
    -5.60368110514e+00 -5.51808009820e+00 -5.43411259658e+00 -5.35173806632e+00
    -5.27091734439e+00 -5.19161254160e+00 -5.11378696073e+00 -5.03740502696e+00
    -4.96243222845e+00 -4.88883506478e+00 -4.81658100185e+00 -4.74563843171e+00
    -4.67597663647e+00 -4.60756575527e+00 -4.54037675379e+00 -4.47438139587e+00
    -4.40955221665e+00 -4.34586249730e+00 -4.28328624080e+00 -4.22179814885e+00
    -4.16137359975e+00 -4.10198862704e+00 -4.04361989906e+00 -3.98624469915e+00
    -3.92984090666e+00 -3.87438697849e+00 -3.81986193141e+00 -3.76624532492e+00
    -3.71351724469e+00 -3.66165828655e+00 -3.61064954112e+00 -3.56047257879e+00
    -3.51110943538e+00 -3.46254259814e+00 -3.41475499225e+00 -3.36772996783e+00
    -3.32145128729e+00 -3.27590311313e+00 -3.23106999613e+00 -3.18693686394e+00
    -3.14348900997e+00 -3.10071208275e+00 -3.05859207551e+00 -3.01711531613e+00
    -2.97626845746e+00 -2.93603846785e+00 -2.89641262204e+00 -2.85737849229e+00
    -2.81892393981e+00 -2.78103710643e+00 -2.74370640652e+00 -2.70692051918e+00
    -2.67066838062e+00 -2.63493917677e+00 -2.59972233617e+00 -2.56500752293e+00
    -2.53078463005e+00 -2.49704377281e+00 -2.46377528239e+00 -2.43096969967e+00
    -2.39861776917e+00 -2.36671043320e+00 -2.33523882609e+00 -2.30419426868e+00
    -2.27356826283e+00 -2.24335248614e+00 -2.21353878680e+00 -2.18411917851e+00
    -2.15508583559e+00 -2.12643108816e+00 -2.09814741740e+00 -2.07022745098e+00
    -2.04266395855e+00 -2.01544984727e+00 -1.98857815753e+00 -1.96204205865e+00
    -1.93583484469e+00 -1.90994993034e+00 -1.88438084687e+00 -1.85912123807e+00
    -1.83416485635e+00 -1.80950555877e+00 -1.78513730320e+00 -1.76105414440e+00
    -1.73725023027e+00 -1.71371979794e+00 -1.69045717003e+00 -1.66745675079e+00
    -1.64471302228e+00 -1.62222054052e+00 -1.59997393164e+00 -1.57796788792e+00
    -1.55619716385e+00 -1.53465657209e+00 -1.51334097935e+00 -1.49224530222e+00
    -1.47136450283e+00 -1.45069358440e+00 -1.43022758672e+00 -1.40996158135e+00
    -1.38989066673e+00 -1.37000996301e+00 -1.35031460667e+00 -1.33079974484e+00
    -1.31146052936e+00 -1.29229211040e+00 -1.27328962980e+00 -1.25444821383e+00
    -1.23576296554e+00 -1.21722895652e+00 -1.19884121793e+00 -1.18059473092e+00
    -1.16248441610e+00 -1.14450512211e+00 -1.12665161311e+00 -1.10891855501e+00
    -1.09130050026e+00 -1.07379187109e+00 -1.05638694076e+00 -1.03907981275e+00
    -1.02186439740e+00 -1.00473438563e+00 -9.87683219245e-01 -9.70704057355e-01
    -9.53789738005e-01 -9.36932734349e-01 -9.20125104244e-01 -9.03358432022e-01
    -8.86623760882e-01 -8.69911513945e-01 -8.53211401557e-01 -8.36512311772e-01
    -8.19802180109e-01 -8.03067833596e-01 -7.86294802599e-01 -7.69467091951e-01
    -7.52566900125e-01 -7.35574271357e-01 -7.18466660168e-01 -7.01218379955e-01
    -6.83799895850e-01 -6.66176904969e-01 -6.48309121076e-01 -6.30148639722e-01
    -6.11637694048e-01 -5.92705501440e-01 -5.73263711531e-01 -5.53199622818e-01
    -5.32365683992e-01 -5.10562478685e-01 -4.87509524426e-01 -4.62791346299e-01
    -4.35747681704e-01 -4.05216963676e-01 -3.68795412670e-01 -3.19674078980e-01
  </PP_LOCAL>
  <PP_NONLOCAL>
    <PP_BETA.1 type="real" size="400" columns="4" index="1" angular_momentum="0" cutoff_radius_index="400">
       9.85607596092e-11  3.15358177487e-09  2.39440097951e-08  1.00879215041e-07
       3.07777963831e-07  7.65603887655e-07  1.65414307114e-06  3.22360941334e-06
       5.80616348845e-06  9.82733071206e-06  1.58173048861e-05  2.44221230972e-05
       3.64146983778e-05  5.27056965243e-05  7.43542437653e-05  1.02578452208e-04
       1.38765750274e-04  1.84483005485e-04  2.41486427434e-04  3.11731239005e-04
       3.97381104222e-04  5.00817301614e-04  6.24647632154e-04  7.71715051522e-04
       9.45106016578e-04  1.14815853660e-03  1.38446992024e-03  1.65790420948e-03
       1.97259929273e-03  2.33297368926e-03  2.74373299795e-03  3.20987600390e-03
       3.73670043665e-03  4.32980837465e-03  4.99511129080e-03  5.73883473460e-03
       6.56752264678e-03  7.48804130277e-03  8.50758288186e-03  9.63366865911e-03
       1.08741518176e-02  1.22372198790e-02  1.37313967494e-02  1.53655443811e-02
       1.71488640448e-02  1.90908972143e-02  2.12015260589e-02  2.34909735432e-02
       2.59698031305e-02  2.86489180883e-02  3.15395603903e-02  3.46533092128e-02
       3.80020790180e-02  4.15981172195e-02  4.54540014204e-02  4.95826362159e-02
       5.39972495482e-02  5.87113886013e-02  6.37389152184e-02  6.90940008261e-02
       7.47911208415e-02  8.08450485409e-02  8.72708483596e-02  9.40838685938e-02
       1.01299733466e-01  1.08934334520e-01  1.17003821287e-01  1.25524591195e-01
       1.34513278645e-01  1.43986743197e-01  1.53962056815e-01  1.64456490068e-01
       1.75487497236e-01  1.87072700210e-01  1.99229871099e-01  2.11976913439e-01
       2.25331841901e-01  2.39312760351e-01  2.53937838170e-01  2.69225284661e-01
       2.85193321417e-01  3.01860152485e-01  3.19243932163e-01  3.37362730253e-01
       3.56234494583e-01  3.75877010612e-01  3.96307857911e-01  4.17544363303e-01
       4.39603550465e-01  4.62502085736e-01  4.86256219921e-01  5.10881725857e-01
       5.36393831474e-01  5.62807148134e-01  5.90135593986e-01  6.18392312098e-01
       6.47589583123e-01  6.77738732256e-01  7.08850030262e-01  7.40932588349e-01
       7.73994246682e-01  8.08041456357e-01  8.43079154665e-01  8.79110633515e-01
       9.16137400905e-01  9.54159035381e-01  9.93173033456e-01  1.03317465003e+00
       1.07415673186e+00  1.11610954430e+00  1.15902059147e+00  1.20287443015e+00
       1.24765247792e+00  1.29333281586e+00  1.33988998662e+00  1.38729478835e+00
       1.43551406568e+00  1.48451049838e+00  1.53424238919e+00  1.58466345191e+00
       1.63572260138e+00  1.68736374701e+00  1.73952559163e+00  1.79214143789e+00
       1.84513900442e+00  1.89844025420e+00  1.95196123792e+00  2.00561195531e+00
       2.05929623739e+00  2.11291165328e+00  2.16634944490e+00  2.21949449344e+00
       2.27222532149e+00  2.32441413491e+00  2.37592690871e+00  2.42662352108e+00
       2.47635794007e+00  2.52497846717e+00  2.57232804211e+00  2.61824461298e+00
       2.66256157572e+00  2.70510828660e+00  2.74571065102e+00  2.78419179157e+00
       2.82037279756e+00  2.85407355771e+00  2.88511367685e+00  2.91331347648e+00
       2.93849507827e+00  2.96048356800e+00  2.97910823666e+00  2.99420389362e+00
       3.00561224555e+00  3.01318333298e+00  3.01677701496e+00  3.01626449018e+00
       3.01152984155e+00  3.00247158912e+00  2.98900423455e+00  2.97105977885e+00
       2.94858919315e+00  2.92156382117e+00  2.88997669056e+00  2.85384370946e+00
       2.81320472398e+00  2.76812441174e+00  2.71869298713e+00  2.66502669415e+00
       2.60726806394e+00  2.54558591597e+00  2.48017508357e+00  2.41125584797e+00
       2.33907306795e+00  2.26389499654e+00  2.18601178069e+00  2.10573364521e+00
       2.02338876746e+00  1.93932085585e+00  1.85388645082e+00  1.76745197388e+00
       1.68039055618e+00  1.59307868474e+00  1.50589270963e+00  1.41920526133e+00
       1.33338163139e+00  1.24877617348e+00  1.16572878417e+00  1.08456152415e+00
       1.00557544023e+00  9.29047646874e-01  8.55228723013e-01  7.84340474649e-01
       7.16574107976e-01  6.52088849769e-01  5.91011042920e-01  5.33433735046e-01