<UPF version="2.0.1">
  <PP_INFO>
Converted from CP2K GTH format
       <PP_INPUTFILE>
Se 
    2    4    0    0
    0.51000000000000       0
       3
    0.43246005000000       3    6.51810990000000   -0.22271639000000   -1.19612899000000
                                                   -1.65797833000000    3.08839178000000
                                                                       -2.45133498000000
    0.47049162000000       2    2.28126223000000    0.36533529000000
                                                   -0.43227055000000
    0.62560034000000       1    0.43979948000000
                                2.28126223000000    0.36533529000000
                                                    0.11250945000000
                                0.43979948000000
       </PP_INPUTFILE>
  </PP_INFO>
  <PP_HEADER
    generated="Generated in analytical, separable form"
    author="Goedecker/Hartwigsen/Hutter/Teter"
    date="Phys.Rev.B58, 3641 (1998); B54, 1703 (1996)"
    comment="This file generated by CP2K ATOM code"
    element="Se"
    pseudo_type="NC"
    relativistic="full"
    is_ultrasoft="F"
    is_paw="F"
    is_coulomb="F"
    has_so="T"
    has_wfc="T"
    has_gipaw="F"
    paw_as_gipaw="F"
    core_correction="F"
    functional="PBE"
    z_valence="6.0000000000"
    total_psenergy="-18.6149250000"
    wfc_cutoff="0.0000000000"
    rho_cutoff="0.0000000000"
    l_max="2"
    l_max_rho="0"
    l_local="-3"
    mesh_size="400"
    number_of_wfc="3"
    number_of_proj="9"/>
  <PP_MESH dx="1.0000000000000000e+00" mesh="400" xmin="1.0000000000000000e+00" rmax="3.7538232999999998e+01" zmesh="3.4000000000000000e+01">
    <PP_R type="real" size="400" columns="4">
       7.22853190584e-12  2.31286432529e-10  1.75607452138e-09  7.39856944537e-09
       2.25727037849e-08  5.61500555707e-08  1.21316292751e-07  2.36422320493e-07
       4.25829084447e-07  7.20744989012e-07  1.16005490915e-06  1.79113976717e-06
       2.67068567771e-06  3.86548166306e-06  5.45320496294e-06  7.52319298002e-06
       1.01772009232e-05  1.35301442221e-05  1.77108248203e-05  2.28626404723e-05
       2.91442761927e-05  3.67303770427e-05  4.58122014526e-05  5.65982543296e-05
       6.93148992117e-05  8.42069487776e-05  1.01538233049e-04  1.21592144665e-04
       1.44672160631e-04  1.71102340018e-04  2.01227797072e-04  2.35415149303e-04
       2.74052940106e-04  3.17552035547e-04  3.66345994967e-04  4.20891415136e-04
       4.81668247687e-04  5.49180089643e-04  6.23954446896e-04  7.06542970501e-04
       7.97521665771e-04  8.97491074118e-04  1.00707642770e-03  1.12692777695e-03
       1.25772009112e-03  1.40015333198e-03  1.55495250098e-03  1.72286765998e-03
       1.90467392601e-03  2.10117144037e-03  2.31318531236e-03  2.54156553820e-03
       2.78718689553e-03  3.05094881400e-03  3.33377522260e-03  3.63661437407e-03
       3.96043864728e-03  4.30624432799e-03  4.67505136882e-03  5.06790312903e-03
       5.48586609482e-03  5.93002958103e-03  6.40150541486e-03  6.90142760243e-03
       7.43095197903e-03  7.99125584389e-03  8.58353758021e-03  9.20901626139e-03
       9.86893124424e-03  1.05645417501e-02  1.12971264349e-02  1.20679829481e-02
       1.28784274833e-02  1.37297943191e-02  1.46234353530e-02  1.55607196278e-02
       1.65430328521e-02  1.75717769162e-02  1.86483694024e-02  1.97742430934e-02
       2.09508454764e-02  2.21796382464e-02  2.34620968078e-02  2.47997097761e-02
       2.61939784799e-02  2.76464164637e-02  2.91585489930e-02  3.07319125619e-02
       3.23680544040e-02  3.40685320070e-02  3.58349126321e-02  3.76687728386e-02
       3.95716980139e-02  4.15452819102e-02  4.35911261879e-02  4.57108399664e-02
       4.79060393828e-02  5.01783471587e-02  5.25293921763e-02  5.49608090629e-02
       5.74742377858e-02  6.00713232566e-02  6.27537149461e-02  6.55230665091e-02
       6.83810354214e-02  7.13292826268e-02  7.43694721957e-02  7.75032709962e-02
       8.07323483757e-02  8.40583758557e-02  8.74830268379e-02  9.10079763235e-02
       9.46349006441e-02  9.83654772053e-02  1.02201384244e-01  1.06144300596e-01
       1.10195905480e-01  1.14357878290e-01  1.18631898405e-01  1.23019645005e-01
       1.27522796911e-01  1.32143032424e-01  1.36882029186e-01  1.41741464052e-01
       1.46723012974e-01  1.51828350893e-01  1.57059151655e-01  1.62417087924e-01
       1.67903831121e-01  1.73521051369e-01  1.79270417446e-01  1.85153596759e-01
       1.91172255326e-01  1.97328057764e-01  2.03622667296e-01  2.10057745770e-01
       2.16634953680e-01  2.23355950208e-01  2.30222393274e-01  2.37235939592e-01
       2.44398244747e-01  2.51710963269e-01  2.59175748728e-01  2.66794253839e-01
       2.74568130569e-01  2.82499030260e-01  2.90588603761e-01  2.98838501574e-01
       3.07250373996e-01  3.15825871286e-01  3.24566643833e-01  3.33474342335e-01
       3.42550617983e-01  3.51797122663e-01  3.61215509160e-01  3.70807431370e-01
       3.80574544524e-01  3.90518505419e-01  4.00640972657e-01  4.10943606896e-01
       4.21428071099e-01  4.32096030808e-01  4.42949154406e-01  4.53989113405e-01
       4.65217582730e-01  4.76636241017e-01  4.88246770917e-01  5.00050859406e-01
       5.12050198107e-01  5.24246483615e-01  5.36641417835e-01  5.49236708323e-01
       5.62034068637e-01  5.75035218695e-01  5.88241885146e-01  6.01655801736e-01
       6.15278709697e-01  6.29112358134e-01  6.43158504427e-01  6.57418914630e-01
       6.71895363892e-01  6.86589636877e-01  7.01503528194e-01  7.16638842840e-01
       7.31997396644e-01  7.47581016724e-01  7.63391541957e-01  7.79430823446e-01
       7.95700725012e-01  8.12203123679e-01  8.28939910182e-01  8.45912989478e-01
       8.63124281265e-01  8.80575720517e-01  8.98269258026e-01  9.16206860955e-01
       9.34390513401e-01  9.52822216969e-01  9.71503991362e-01  9.90437874975e-01
       1.00962592551e+00  1.02907022059e+00  1.04877285840e+00  1.06873595834e+00
       1.08896166167e+00  1.10945213221e+00  1.13020955700e+00  1.15123614703e+00
       1.17253413794e+00  1.19410579078e+00  1.21595339271e+00  1.23807925785e+00
       1.26048572797e+00  1.28317517335e+00  1.30614999360e+00  1.32941261848e+00
       1.35296550876e+00  1.37681115710e+00  1.40095208896e+00  1.42539086350e+00
       1.45013007454e+00  1.47517235154e+00  1.50052036053e+00  1.52617680519e+00
       1.55214442785e+00  1.57842601057e+00  1.60502437624e+00  1.63194238966e+00
       1.65918295875e+00  1.68674903569e+00  1.71464361814e+00  1.74286975047e+00
       1.77143052508e+00  1.80032908367e+00  1.82956861859e+00  1.85915237427e+00
       1.88908364858e+00  1.91936579436e+00  1.95000222087e+00  1.98099639540e+00
       2.01235184480e+00  2.04407215718e+00  2.07616098357e+00  2.10862203968e+00
       2.14145910766e+00  2.17467603802e+00  2.20827675146e+00  2.24226524089e+00
       2.27664557341e+00  2.31142189244e+00  2.34659841990e+00  2.38217945835e+00
       2.41816939337e+00  2.45457269592e+00  2.49139392475e+00  2.52863772900e+00
       2.56630885075e+00  2.60441212779e+00  2.64295249638e+00  2.68193499418e+00
       2.72136476318e+00  2.76124705291e+00  2.80158722354e+00  2.84239074930e+00
       2.88366322184e+00  2.92541035387e+00  2.96763798281e+00  3.01035207467e+00
       3.05355872799e+00  3.09726417797e+00  3.14147480079e+00  3.18619711802e+00
       3.23143780123e+00  3.27720367684e+00  3.32350173102e+00  3.37033911495e+00
       3.41772315014e+00  3.46566133409e+00  3.51416134605e+00  3.56323105315e+00
       3.61287851667e+00  3.66311199862e+00  3.71393996861e+00  3.76537111099e+00
       3.81741433227e+00  3.87007876892e+00  3.92337379544e+00  3.97730903285e+00
       4.03189435749e+00  4.08713991025e+00  4.14305610626e+00  4.19965364490e+00
       4.25694352037e+00  4.31493703276e+00  4.37364579952e+00  4.43308176763e+00
       4.49325722620e+00  4.55418481982e+00  4.61587756241e+00  4.67834885190e+00
       4.74161248552e+00  4.80568267591e+00  4.87057406808e+00  4.93630175712e+00
       5.00288130699e+00  5.07032877013e+00  5.13866070824e+00  5.20789421408e+00
       5.27804693449e+00  5.34913709465e+00  5.42118352367e+00  5.49420568167e+00
       5.56822368827e+00  5.64325835285e+00  5.71933120643e+00  5.79646453548e+00
       5.87468141775e+00  5.95400576017e+00  6.03446233910e+00  6.11607684305e+00
       6.19887591802e+00  6.28288721572e+00  6.36813944483e+00  6.45466242560e+00
       6.54248714801e+00  6.63164583376e+00  6.72217200241e+00  6.81410054208e+00
       6.90746778497e+00  7.00231158817e+00  7.09867142021e+00  7.19658845383e+00
       7.29610566552e+00  7.39726794245e+00  7.50012219742e+00  7.60471749259e+00
       7.71110517277e+00  7.81933900930e+00  7.92947535534e+00  8.04157331379e+00
       8.15569491921e+00  8.27190533484e+00  8.39027306665e+00  8.51087019584e+00
       8.63377263206e+00  8.75906038931e+00  8.88681788726e+00  9.01713428073e+00
       9.15010382043e+00  9.28582624889e+00  9.42440723554e+00  9.56595885564e+00
       9.71060011879e+00  9.85845755290e+00  1.00096658511e+01  1.01643685896e+01
       1.03227190264e+01  1.04848809919e+01  1.06510298839e+01  1.08213537828e+01
       1.09960547046e+01  1.11753500125e+01  1.13594740119e+01  1.15486797575e+01
       1.17432411096e+01  1.19434550779e+01  1.21496445077e+01  1.23621611644e+01
       1.25813892956e+01  1.28077497563e+01  1.30417048124e+01  1.32837637582e+01
       1.35344895202e+01  1.37945064614e+01  1.40645096609e+01  1.43452760122e+01
       1.46376775900e+01  1.49426978619e+01  1.52614515069e+01  1.55952088472e+01
       1.59454262445e+01  1.63137843006e+01  1.67022363949e+01  1.71130711103e+01
       1.75489936059e+01  1.80132332876e+01  1.85096886807e+01  1.90431260874e+01
       1.96194579189e+01  2.02461424280e+01  2.09327744956e+01  2.16919887596e+01
       2.25408969076e+01  2.35034897804e+01  2.46149037070e+01  2.59296118995e+01
       2.75388728474e+01  2.96137651572e+01  3.25383656839e+01  3.75382328098e+01
    </PP_R>
    <PP_RAB type="real" size="400" columns="4">
       3.61412465855e-11  5.78188964494e-10  2.92648282218e-09  9.24648195069e-09
       2.25661064928e-08  4.67720198933e-08  8.66048561826e-08  1.47653397850e-07
       2.36347711306e-07  3.59951248387e-07  5.26551923849e-07  7.45052180357e-07
       1.02515805405e-06  1.37736725537e-06  1.81295628150e-06  2.34396657848e-06
       2.98318977251e-06  3.74415199212e-06  4.64109730401e-06  5.68897028740e-06
       6.90339777347e-06  8.30066977780e-06  9.89771965563e-06  1.17121035113e-05
       1.37619788945e-05  1.60660828183e-05  1.86437091343e-05  2.15146853016e-05
       2.46993485900e-05  2.82185217549e-05  3.20934882265e-05  3.63459668547e-05
       4.09980862524e-05  4.60723587821e-05  5.15916542287e-05  5.75791732062e-05
       6.40584203412e-05  7.10531772822e-05  7.85874755801e-05  8.66855694856e-05
       9.53719087129e-05  1.04671111214e-04  1.14607936011e-04  1.25207256136e-04
       1.36494031713e-04  1.48493283248e-04  1.61230065148e-04  1.74729439530e-04
       1.89016450357e-04  2.04116097938e-04  2.20053313843e-04  2.36852936265e-04
       2.54539685870e-04  2.73138142168e-04  2.92672720446e-04  3.13167649293e-04
       3.34646948751e-04  3.57134409115e-04  3.80653570425e-04  4.05227702659e-04
       4.30879786667e-04  4.57632495857e-04  4.85508178657e-04  5.14528841780e-04
       5.44716134295e-04  5.76091332528e-04  6.08675325798e-04  6.42488603009e-04
       6.77551240098e-04  7.13882888342e-04  7.51502763545e-04  7.90429636085e-04
       8.30681821840e-04  8.72277173981e-04  9.15233075636e-04  9.59566433411e-04
       1.00529367177e-03  1.05243072828e-03  1.10099304962e-03  1.15099558855e-03
       1.20245280156e-03  1.25537864739e-03  1.30978658629e-03  1.36568958013e-03
       1.42310009316e-03  1.48203009352e-03  1.54249105553e-03  1.60449396261e-03
       1.66804931085e-03  1.73316711327e-03  1.79985690471e-03  1.86812774726e-03
       1.93798823631e-03  2.00944650717e-03  2.08251024216e-03  2.15718667826e-03
       2.23348261517e-03  2.31140442393e-03  2.39095805584e-03  2.47214905185e-03
       2.55498255237e-03  2.63946330735e-03  2.72559568672e-03  2.81338369116e-03
       2.90283096313e-03  2.99394079816e-03  3.08671615638e-03  3.18115967427e-03
       3.27727367655e-03  3.37506018837e-03  3.47452094746e-03  3.57565741662e-03
       3.67847079612e-03  3.78296203635e-03  3.88913185047e-03  3.99698072711e-03
       4.10650894313e-03  4.21771657643e-03  4.33060351870e-03  4.44516948823e-03
       4.56141404268e-03  4.67933659180e-03  4.79893641013e-03  4.92021264962e-03
       5.04316435224e-03  5.16779046239e-03  5.29408983939e-03  5.42206126976e-03
       5.55170347939e-03  5.68301514572e-03  5.81599490964e-03  5.95064138743e-03
       6.08695318243e-03  6.22492889668e-03  6.36456714239e-03  6.50586655324e-03
       6.64882579562e-03  6.79344357961e-03  6.93971866996e-03  7.08764989676e-03
       7.23723616609e-03  7.38847647051e-03  7.54136989931e-03  7.69591564869e-03
       7.85211303184e-03  8.00996148875e-03  8.16946059599e-03  8.33061007627e-03
       8.49340980796e-03  8.65785983438e-03  8.82396037303e-03  8.99171182463e-03
       9.16111478213e-03  9.33217003952e-03  9.50487860054e-03  9.67924168738e-03
       9.85526074909e-03  1.00329374701e-02  1.02122737786e-02  1.03932718546e-02
       1.05759341383e-02  1.07602633380e-02  1.09462624384e-02  1.11339347085e-02
       1.13232837093e-02  1.15143133018e-02  1.17070276553e-02  1.19014312544e-02
       1.20975289074e-02  1.22953257540e-02  1.24948272730e-02  1.26960392898e-02
       1.28989679849e-02  1.31036199010e-02  1.33100019513e-02  1.35181214271e-02
       1.37279860059e-02  1.39396037594e-02  1.41529831613e-02  1.43681330957e-02
       1.45850628651e-02  1.48037821990e-02  1.50243012616e-02  1.52466306612e-02
       1.54707814582e-02  1.56967651740e-02  1.59245938001e-02  1.61542798069e-02
       1.63858361531e-02  1.66192762949e-02  1.68546141958e-02  1.70918643364e-02
       1.73310417239e-02  1.75721619032e-02  1.78152409666e-02  1.80602955647e-02
       1.83073429176e-02  1.85564008260e-02  1.88074876825e-02  1.90606224840e-02
       1.93158248431e-02  1.95731150013e-02  1.98325138416e-02  2.00940429014e-02
       2.03577243866e-02  2.06235811853e-02  2.08916368820e-02  2.11619157732e-02
       2.14344428818e-02  2.17092439735e-02  2.19863455727e-02  2.22657749796e-02
       2.25475602874e-02  2.28317304000e-02  2.31183150508e-02  2.34073448215e-02
       2.36988511620e-02  2.39928664106e-02  2.42894238152e-02  2.45885575550e-02
       2.48903027631e-02  2.51946955496e-02  2.55017730261e-02  2.58115733300e-02
       2.61241356509e-02  2.64395002570e-02  2.67577085230e-02  2.70788029585e-02
       2.74028272380e-02  2.77298262314e-02  2.80598460359e-02  2.83929340093e-02
       2.87291388041e-02  2.90685104029e-02  2.94111001556e-02  2.97569608172e-02
       3.01061465878e-02  3.04587131537e-02  3.08147177300e-02  3.11742191050e-02
       3.15372776865e-02  3.19039555494e-02  3.22743164852e-02  3.26484260542e-02
       3.30263516388e-02  3.34081624992e-02  3.37939298318e-02  3.41837268292e-02
       3.45776287430e-02  3.49757129491e-02  3.53780590159e-02  3.57847487745e-02
       3.61958663928e-02  3.66114984521e-02  3.70317340266e-02  3.74566647672e-02
       3.78863849879e-02  3.83209917562e-02  3.87605849875e-02  3.92052675434e-02
       3.96551453346e-02  4.01103274272e-02  4.05709261555e-02  4.10370572379e-02
       4.15088398991e-02  4.19863969978e-02  4.24698551591e-02  4.29593449144e-02
       4.34550008465e-02  4.39569617420e-02  4.44653707506e-02  4.49803755518e-02
       4.55021285297e-02  4.60307869559e-02  4.65665131809e-02  4.71094748354e-02
       4.76598450408e-02  4.82178026302e-02  4.87835323804e-02  4.93572252552e-02
       4.99390786613e-02  5.05292967168e-02  5.11280905335e-02  5.17356785135e-02
       5.23522866620e-02  5.29781489152e-02  5.36135074867e-02  5.42586132312e-02
       5.49137260290e-02  5.55791151901e-02  5.62550598814e-02  5.69418495762e-02
       5.76397845305e-02  5.83491762843e-02  5.90703481923e-02  5.98036359845e-02
       6.05493883598e-02  6.13079676134e-02  6.20797503018e-02  6.28651279469e-02
       6.36645077828e-02  6.44783135474e-02  6.53069863229e-02  6.61509854281e-02
       6.70107893669e-02  6.78868968360e-02  6.87798277976e-02  6.96901246213e-02
       7.06183532999e-02  7.15651047463e-02  7.25309961761e-02  7.35166725840e-02
       7.45228083204e-02  7.55501087773e-02  7.65993121914e-02  7.76711915748e-02
       7.87665567834e-02  7.98862567351e-02  8.10311817903e-02  8.22022663084e-02
       8.34004913967e-02  8.46268878675e-02  8.58825394232e-02  8.71685860891e-02
       8.84862279179e-02  8.98367289899e-02  9.12214217379e-02  9.26417116279e-02
       9.40990822294e-02  9.55951007141e-02  9.71314238267e-02  9.87098043742e-02
       1.00332098288e-01  1.02000272319e-01  1.03716412432e-01  1.05482732973e-01
       1.07301586698e-01  1.09175475763e-01  1.11107063760e-01  1.13099188958e-01
       1.15154878853e-01  1.17277366205e-01  1.19470106734e-01  1.21736798670e-01
       1.24081404414e-01  1.26508174543e-01  1.29021674500e-01  1.31626814292e-01
       1.34328881621e-01  1.37133578915e-01  1.40047064795e-01  1.43076000627e-01
       1.46227602890e-01  1.49509702229e-01  1.52930810211e-01  1.56500194981e-01
       1.60227967241e-01  1.64125178212e-01  1.68203931607e-01  1.72477511980e-01
       1.76960532329e-01  1.81669104410e-01  1.86621035940e-01  1.91836059782e-01
       1.97336101321e-01  2.03145591685e-01  2.09291836235e-01  2.15805450050e-01
       2.22720875073e-01  2.30076997349e-01  2.37917887698e-01  2.46293695651e-01
       2.55261734930e-01  2.64887810143e-01  2.75247849657e-01  2.86429930338e-01
       2.98536808495e-01  3.11689111057e-01  3.26029397081e-01  3.41727379682e-01
       3.58986714553e-01  3.78053932212e-01  3.99230347686e-01  4.22888173580e-01
       4.49492675599e-01  4.79633190252e-01  5.14067435763e-01  5.53786274450e-01
       6.00110855785e-01  6.54842747474e-01  7.20504143675e-01  8.00738214302e-01
       9.01009712949e-01  1.02990611082e+00  1.20173985634e+00  1.44227336796e+00
       1.80303143236e+00  2.40423865599e+00  3.60656595712e+00  7.21335303926e+00
    </PP_RAB>
  </PP_MESH>
  <PP_LOCAL type="real" size="400" columns="4">
    -1.87737543718e+01 -1.87737543718e+01 -1.87737543718e+01 -1.87737543718e+01
    -1.87737543718e+01 -1.87737543718e+01 -1.87737543718e+01 -1.87737543718e+01
    -1.87737543718e+01 -1.87737543718e+01 -1.87737543718e+01 -1.87737543718e+01
    -1.87737543718e+01 -1.87737543716e+01 -1.87737543715e+01 -1.87737543712e+01
    -1.87737543706e+01 -1.87737543696e+01 -1.87737543681e+01 -1.87737543655e+01
    -1.87737543616e+01 -1.87737543556e+01 -1.87737543466e+01 -1.87737543333e+01
    -1.87737543140e+01 -1.87737542865e+01 -1.87737542478e+01 -1.87737541940e+01
    -1.87737541201e+01 -1.87737540196e+01 -1.87737538847e+01 -1.87737537051e+01
    -1.87737534683e+01 -1.87737531588e+01 -1.87737527573e+01 -1.87737522407e+01
    -1.87737515809e+01 -1.87737507437e+01 -1.87737496884e+01 -1.87737483665e+01
    -1.87737467204e+01 -1.87737446819e+01 -1.87737421712e+01 -1.87737390944e+01
    -1.87737353423e+01 -1.87737307882e+01 -1.87737252852e+01 -1.87737186641e+01
    -1.87737107303e+01 -1.87737012612e+01 -1.87736900025e+01 -1.87736766648e+01
    -1.87736609196e+01 -1.87736423953e+01 -1.87736206725e+01 -1.87735952790e+01
    -1.87735656847e+01 -1.87735312962e+01 -1.87734914499e+01 -1.87734454065e+01
    -1.87733923436e+01 -1.87733313484e+01 -1.87732614098e+01 -1.87731814103e+01
    -1.87730901172e+01 -1.87729861731e+01 -1.87728680862e+01 -1.87727342201e+01
    -1.87725827826e+01 -1.87724118143e+01 -1.87722191769e+01 -1.87720025399e+01
    -1.87717593683e+01 -1.87714869079e+01 -1.87711821715e+01 -1.87708419234e+01
    -1.87704626642e+01 -1.87700406142e+01 -1.87695716964e+01 -1.87690515195e+01
    -1.87684753591e+01 -1.87678381392e+01 -1.87671344126e+01 -1.87663583412e+01
    -1.87655036749e+01 -1.87645637306e+01 -1.87635313702e+01 -1.87623989781e+01
    -1.87611584382e+01 -1.87598011105e+01 -1.87583178065e+01 -1.87566987651e+01
    -1.87549336269e+01 -1.87530114093e+01 -1.87509204798e+01 -1.87486485299e+01
    -1.87461825485e+01 -1.87435087943e+01 -1.87406127693e+01 -1.87374791904e+01
    -1.87340919621e+01 -1.87304341488e+01 -1.87264879468e+01 -1.87222346566e+01
    -1.87176546553e+01 -1.87127273691e+01 -1.87074312462e+01 -1.87017437301e+01
    -1.86956412336e+01 -1.86890991126e+01 -1.86820916421e+01 -1.86745919916e+01
    -1.86665722022e+01 -1.86580031652e+01 -1.86488546012e+01 -1.86390950414e+01
    -1.86286918101e+01 -1.86176110091e+01 -1.86058175045e+01 -1.85932749154e+01
    -1.85799456050e+01 -1.85657906748e+01 -1.85507699611e+01 -1.85348420356e+01
    -1.85179642082e+01 -1.85000925347e+01 -1.84811818277e+01 -1.84611856721e+01
    -1.84400564452e+01 -1.84177453410e+01 -1.83942024010e+01 -1.83693765487e+01
    -1.83432156320e+01 -1.83156664694e+01 -1.82866749047e+01 -1.82561858672e+01
    -1.82241434391e+01 -1.81904909312e+01 -1.81551709647e+01 -1.81181255625e+01
    -1.80792962480e+01 -1.80386241523e+01 -1.79960501304e+01 -1.79515148864e+01
    -1.79049591076e+01 -1.78563236079e+01 -1.78055494811e+01 -1.77525782626e+01
    -1.76973521015e+01 -1.76398139417e+01 -1.75799077124e+01 -1.75175785276e+01
    -1.74527728946e+01 -1.73854389310e+01 -1.73155265901e+01 -1.72429878935e+01
    -1.71677771712e+01 -1.70898513079e+01 -1.70091699948e+01 -1.69256959867e+01
    -1.68393953616e+01 -1.67502377841e+01 -1.66581967695e+01 -1.65632499477e+01
    -1.64653793264e+01 -1.63645715499e+01 -1.62608181543e+01 -1.61541158157e+01
    -1.60444665895e+01 -1.59318781399e+01 -1.58163639559e+01 -1.56979435540e+01
    -1.55766426620e+01 -1.54524933858e+01 -1.53255343530e+01 -1.51958108342e+01
    -1.50633748373e+01 -1.49282851747e+01 -1.47906074998e+01 -1.46504143119e+01
    -1.45077849262e+01 -1.43628054095e+01 -1.42155684777e+01 -1.40661733557e+01
    -1.39147255974e+01 -1.37613368663e+01 -1.36061246753e+01 -1.34492120865e+01
    -1.32907273711e+01 -1.31308036295e+01 -1.29695783749e+01 -1.28071930787e+01
    -1.26437926837e+01 -1.24795250843e+01 -1.23145405782e+01 -1.21489912938e+01
    -1.19830305950e+01 -1.18168124693e+01 -1.16504909035e+01 -1.14842192511e+01
    -1.13181495976e+01 -1.11524321276e+01 -1.09872145011e+01 -1.08226412427e+01
    -1.06588531503e+01 -1.04959867283e+01 -1.03341736511e+01 -1.01735402607e+01
    -1.00142071053e+01 -9.85628852036e+00 -9.69989225865e+00 -9.54511917061e+00
    -9.39206293874e+00 -9.24080986763e+00 -9.09143873092e+00 -8.94402067598e+00
    -8.79861918583e+00 -8.65529009770e+00 -8.51408167639e+00 -8.37503474009e+00
    -8.23818283592e+00 -8.10355246118e+00 -7.97116332662e+00 -7.84102865691e+00
    -7.71315552341e+00 -7.58754520411e+00 -7.46419356539e+00 -7.34309146009e+00
    -7.22422513652e+00 -7.10757665324e+00 -6.99312429445e+00 -6.88084298133e+00
    -6.77070467491e+00 -6.66267876665e+00 -6.55673245312e+00 -6.45283109213e+00
    -6.35093853757e+00 -6.25101745150e+00 -6.15302959185e+00 -6.05693607523e+00
    -5.96269761431e+00 -5.87027473006e+00 -5.77962793932e+00 -5.69071791855e+00
    -5.60350564501e+00 -5.51795251665e+00 -5.43402045228e+00 -5.35167197378e+00
    -5.27087027196e+00 -5.19157925782e+00 -5.11376360102e+00 -5.03738875718e+00
    -4.96242098546e+00 -4.88882735808e+00 -4.81657576296e+00 -4.74563490082e+00
    -4.67597427767e+00 -4.60756419376e+00 -4.54037572974e+00 -4.47438073074e+00
    -4.40955178893e+00 -4.34586222506e+00 -4.28328606933e+00 -4.22179804203e+00
    -4.16137353394e+00 -4.10198858696e+00 -4.04361987494e+00 -3.98624468481e+00
    -3.92984089824e+00 -3.87438697361e+00 -3.81986192862e+00 -3.76624532335e+00
    -3.71351724381e+00 -3.66165828607e+00 -3.61064954086e+00 -3.56047257866e+00
    -3.51110943531e+00 -3.46254259810e+00 -3.41475499223e+00 -3.36772996782e+00
    -3.32145128728e+00 -3.27590311313e+00 -3.23106999613e+00 -3.18693686394e+00
    -3.14348900997e+00 -3.10071208275e+00 -3.05859207551e+00 -3.01711531613e+00
    -2.97626845746e+00 -2.93603846785e+00 -2.89641262204e+00 -2.85737849229e+00
    -2.81892393981e+00 -2.78103710643e+00 -2.74370640652e+00 -2.70692051918e+00
    -2.67066838062e+00 -2.63493917677e+00 -2.59972233617e+00 -2.56500752293e+00
    -2.53078463005e+00 -2.49704377281e+00 -2.46377528239e+00 -2.43096969967e+00
    -2.39861776917e+00 -2.36671043320e+00 -2.33523882609e+00 -2.30419426868e+00
    -2.27356826283e+00 -2.24335248614e+00 -2.21353878680e+00 -2.18411917851e+00
    -2.15508583559e+00 -2.12643108816e+00 -2.09814741740e+00 -2.07022745098e+00
    -2.04266395855e+00 -2.01544984727e+00 -1.98857815753e+00 -1.96204205865e+00
    -1.93583484469e+00 -1.90994993034e+00 -1.88438084687e+00 -1.85912123807e+00
    -1.83416485635e+00 -1.80950555877e+00 -1.78513730320e+00 -1.76105414440e+00
    -1.73725023027e+00 -1.71371979794e+00 -1.69045717003e+00 -1.66745675079e+00
    -1.64471302228e+00 -1.62222054052e+00 -1.59997393164e+00 -1.57796788792e+00
    -1.55619716385e+00 -1.53465657209e+00 -1.51334097935e+00 -1.49224530222e+00
    -1.47136450283e+00 -1.45069358440e+00 -1.43022758672e+00 -1.40996158135e+00
    -1.38989066673e+00 -1.37000996301e+00 -1.35031460667e+00 -1.33079974484e+00
    -1.31146052936e+00 -1.29229211040e+00 -1.27328962980e+00 -1.25444821383e+00
    -1.23576296554e+00 -1.21722895652e+00 -1.19884121793e+00 -1.18059473092e+00
    -1.16248441610e+00 -1.14450512211e+00 -1.12665161311e+00 -1.10891855501e+00
    -1.09130050026e+00 -1.07379187109e+00 -1.05638694076e+00 -1.03907981275e+00
    -1.02186439740e+00 -1.00473438563e+00 -9.87683219245e-01 -9.70704057355e-01
    -9.53789738005e-01 -9.36932734349e-01 -9.20125104244e-01 -9.03358432022e-01
    -8.86623760882e-01 -8.69911513945e-01 -8.53211401557e-01 -8.36512311772e-01
    -8.19802180109e-01 -8.03067833596e-01 -7.86294802599e-01 -7.69467091951e-01
    -7.52566900125e-01 -7.35574271357e-01 -7.18466660168e-01 -7.01218379955e-01
    -6.83799895850e-01 -6.66176904969e-01 -6.48309121076e-01 -6.30148639722e-01
    -6.11637694048e-01 -5.92705501440e-01 -5.73263711531e-01 -5.53199622818e-01
    -5.32365683992e-01 -5.10562478685e-01 -4.87509524426e-01 -4.62791346299e-01
    -4.35747681704e-01 -4.05216963676e-01 -3.68795412670e-01 -3.19674078980e-01
  </PP_LOCAL>
  <PP_NONLOCAL>
    <PP_BETA.1 type="real" size="400" columns="4" index="1" angular_momentum="0" cutoff_radius_index="400">
       7.63666314422e-11  2.44345130942e-09  1.85522451178e-08  7.81630119911e-08
       2.38471846434e-07  5.93203523909e-07  1.28165950392e-06  2.49770997057e-06
       4.49871885093e-06  7.61439081360e-06  1.22555294565e-05  1.89226958173e-05
       2.82147566754e-05  4.08373121047e-05  5.76109919657e-05  7.94796112089e-05
       1.07518174081e-04  1.42940717440e-04  1.87107983761e-04  2.41534914564e-04
       3.07897955296e-04  3.88042163025e-04  4.83988108488e-04  5.97938564559e-04
       7.32284973286e-04  8.89613684221e-04  1.07271195699e-03  1.28457372144e-03
       1.52840508925e-03  1.80762961090e-03  2.12589327286e-03  2.48706922972e-03
       2.89526226668e-03  3.35481298837e-03  3.87030172989e-03  4.44655218693e-03
       5.08863476186e-03  5.80186962321e-03  6.59182947634e-03  7.46434204324e-03
       8.42549225023e-03  9.48162412197e-03  1.06393423810e-02  1.19055137520e-02
       1.32872679700e-02  1.47919984925e-02  1.64273629148e-02  1.82012830880e-02
       2.01219449396e-02  2.21977979963e-02  2.44375546074e-02  2.68501888684e-02
       2.94449352431e-02  3.22312868817e-02  3.52189936329e-02  3.84180597463e-02
       4.18387412600e-02  4.54915430689e-02  4.93872156674e-02  5.35367515566e-02
       5.79513813092e-02  6.26425692788e-02  6.76220089422e-02  7.29016178587e-02
       7.84935322290e-02  8.44101010358e-02  9.06638797414e-02  9.72676235189e-02
       1.04234279988e-01  1.11576981427e-01  1.19309036417e-01  1.27443920895e-01
       1.35995268560e-01  1.44976860588e-01  1.54402614617e-01  1.64286572926e-01
       1.74642889769e-01  1.85485817785e-01  1.96829693422e-01  2.08688921289e-01
       2.21077957378e-01  2.34011291043e-01  2.47503425660e-01  2.61568857877e-01
       2.76222055328e-01  2.91477432731e-01  3.07349326238e-01  3.23851965915e-01
       3.40999446247e-01  3.58805694515e-01  3.77284436925e-01  3.96449162343e-01
       4.16313083493e-01  4.36889095474e-01  4.58189731437e-01  4.80227115280e-01
       5.03012911194e-01  5.26558269917e-01  5.50873771527e-01  5.75969364638e-01
       6.01854301823e-01  6.28537071145e-01  6.56025323637e-01  6.84325796604e-01
       7.13444232631e-01  7.43385294172e-01  7.74152473643e-01  8.05747998934e-01
       8.38172734276e-01  8.71426076450e-01  9.05505846314e-01  9.40408175688e-01
       9.76127389657e-01  1.01265588439e+00  1.04998400062e+00  1.08809989302e+00
       1.12698939564e+00  1.16663588383e+00  1.20702013292e+00  1.24812017419e+00
       1.28991114856e+00  1.33236515879e+00  1.37545112062e+00  1.41913461387e+00
       1.46337773432e+00  1.50813894737e+00  1.55337294450e+00  1.59903050402e+00
       1.64505835709e+00  1.69139906088e+00  1.73799088014e+00  1.78476767915e+00
       1.83165882571e+00  1.87858910942e+00  1.92547867606e+00  1.97224298054e+00
       2.01879276069e+00  2.06503403428e+00  2.11086812193e+00  2.15619169847e+00
       2.20089687538e+00  2.24487131711e+00  2.28799839399e+00  2.33015737435e+00
       2.37122365856e+00  2.41106905761e+00  2.44956211849e+00  2.48656849874e+00
       2.52195139217e+00  2.55557200732e+00  2.58729010028e+00  2.61696456263e+00
       2.64445406499e+00  2.66961775633e+00  2.69231601811e+00  2.71241127209e+00
       2.72976883962e+00  2.74425784964e+00  2.75575219140e+00  2.76413150734e+00
       2.76928222053e+00  2.77109858967e+00  2.76948378421e+00  2.76435097061e+00
       2.75562439989e+00  2.74324048569e+00  2.72714886072e+00  2.70731339913e+00
       2.68371319084e+00  2.65634345368e+00  2.62521636838e+00  2.59036182110e+00
       2.55182803802e+00  2.50968209658e+00  2.46401029828e+00  2.41491838841e+00