<UPF version="2.0.1">
  <PP_INFO>
Converted from CP2K GTH format
       <PP_INPUTFILE>
Se 
    2    4    0    0
    0.51000000000000       0
       3
    0.43246005000000       3    6.51810990000000   -0.22271639000000   -1.19612899000000
                                                   -1.65797833000000    3.08839178000000
                                                                       -2.45133498000000
    0.47049162000000       2    2.28126223000000    0.36533529000000
                                                   -0.43227055000000
    0.62560034000000       1    0.43979948000000
                                2.28126223000000    0.36533529000000
                                                    0.11250945000000
                                0.43979948000000
       </PP_INPUTFILE>
  </PP_INFO>
  <PP_HEADER
    generated="Generated in analytical, separable form"
    author="Goedecker/Hartwigsen/Hutter/Teter"
    date="Phys.Rev.B58, 3641 (1998); B54, 1703 (1996)"
    comment="This file generated by CP2K ATOM code"
    element="Se"
    pseudo_type="NC"
    relativistic="full"
    is_ultrasoft="F"
    is_paw="F"
    is_coulomb="F"
    has_so="T"
    has_wfc="T"
    has_gipaw="F"
    paw_as_gipaw="F"
    core_correction="F"
    functional="PBE"
    z_valence="6.0000000000"
    total_psenergy="-18.6150310000"
    wfc_cutoff="0.0000000000"
    rho_cutoff="0.0000000000"
    l_max="2"
    l_max_rho="0"
    l_local="-3"
    mesh_size="1211"
    number_of_wfc="3"
    number_of_proj="9"/>
  <PP_MESH dx="1.2500000000000001e-02" mesh="1211" xmin="-7.0000000000000000e+00" rmax="9.9349056813927490e+01" zmesh="3.4000000000000000e+01">
    <PP_R type="real" size="1211" columns="4">
       2.68200578104e-05  2.71574126079e-05  2.74990108064e-05  2.78449057812e-05
       2.81951515792e-05  2.85498029271e-05  2.89089152397e-05  2.92725446291e-05
       2.96407479132e-05  3.00135826244e-05  3.03911070190e-05  3.07733800860e-05
       3.11604615561e-05  3.15524119118e-05  3.19492923960e-05  3.23511650222e-05
       3.27580925837e-05  3.31701386638e-05  3.35873676456e-05  3.40098447219e-05
       3.44376359056e-05  3.48708080400e-05  3.53094288092e-05  3.57535667484e-05
       3.62032912551e-05  3.66586725998e-05  3.71197819366e-05  3.75866913149e-05
       3.80594736902e-05  3.85382029356e-05  3.90229538537e-05  3.95138021878e-05
       4.00108246338e-05  4.05140988525e-05  4.10237034816e-05  4.15397181479e-05
       4.20622234796e-05  4.25913011194e-05  4.31270337366e-05  4.36695050405e-05
       4.42187997935e-05  4.47750038238e-05  4.53382040397e-05  4.59084884421e-05
       4.64859461393e-05  4.70706673601e-05  4.76627434685e-05  4.82622669775e-05
       4.88693315639e-05  4.94840320828e-05  5.01064645824e-05  5.07367263191e-05
       5.13749157724e-05  5.20211326608e-05  5.26754779571e-05  5.33380539040e-05
       5.40089640303e-05  5.46883131671e-05  5.53762074641e-05  5.60727544062e-05
       5.67780628302e-05  5.74922429421e-05  5.82154063339e-05  5.89476660014e-05
       5.96891363616e-05  6.04399332709e-05  6.12001740426e-05  6.19699774661e-05
       6.27494638246e-05  6.35387549146e-05  6.43379740642e-05  6.51472461532e-05
       6.59666976319e-05  6.67964565414e-05  6.76366525331e-05  6.84874168893e-05
       6.93488825438e-05  7.02211841023e-05  7.11044578637e-05  7.19988418412e-05
       7.29044757843e-05  7.38215012001e-05  7.47500613756e-05  7.56903014002e-05
       7.66423681885e-05  7.76064105027e-05  7.85825789765e-05  7.95710261380e-05
       8.05719064344e-05  8.15853762550e-05  8.26115939566e-05  8.36507198879e-05
       8.47029164144e-05  8.57683479438e-05  8.68471809522e-05  8.79395840092e-05
       8.90457278052e-05  9.01657851773e-05  9.12999311367e-05  9.24483428962e-05
       9.36111998973e-05  9.47886838389e-05  9.59809787052e-05  9.71882707946e-05
       9.84107487492e-05  9.96486035834e-05  1.00902028715e-04  1.02171219993e-04
       1.03456375733e-04  1.04757696741e-04  1.06075386353e-04  1.07409650460e-04
       1.08760697544e-04  1.10128738707e-04  1.11513987710e-04  1.12916661001e-04
       1.14336977749e-04  1.15775159883e-04  1.17231432121e-04  1.18706022009e-04
       1.20199159955e-04  1.21711079264e-04  1.23242016176e-04  1.24792209904e-04
       1.26361902669e-04  1.27951339738e-04  1.29560769465e-04  1.31190443325e-04
       1.32840615959e-04  1.34511545210e-04  1.36203492163e-04  1.37916721189e-04
       1.39651499983e-04  1.41408099608e-04  1.43186794536e-04  1.44987862693e-04
       1.46811585497e-04  1.48658247911e-04  1.50528138479e-04  1.52421549374e-04
       1.54338776447e-04  1.56280119267e-04  1.58245881174e-04  1.60236369322e-04
       1.62251894728e-04  1.64292772323e-04  1.66359320999e-04  1.68451863656e-04
       1.70570727260e-04  1.72716242887e-04  1.74888745779e-04  1.77088575392e-04
       1.79316075456e-04  1.81571594022e-04  1.83855483518e-04  1.86168100808e-04
       1.88509807243e-04  1.90880968718e-04  1.93281955733e-04  1.95713143447e-04
       1.98174911738e-04  2.00667645262e-04  2.03191733513e-04  2.05747570887e-04
       2.08335556737e-04  2.10956095441e-04  2.13609596465e-04  2.16296474423e-04
       2.19017149145e-04  2.21772045742e-04  2.24561594672e-04  2.27386231809e-04
       2.30246398507e-04  2.33142541673e-04  2.36075113835e-04  2.39044573214e-04
       2.42051383795e-04  2.45096015396e-04  2.48178943749e-04  2.51300650566e-04
       2.54461623621e-04  2.57662356823e-04  2.60903350292e-04  2.64185110440e-04
       2.67508150050e-04  2.70872988352e-04  2.74280151110e-04  2.77730170699e-04
       2.81223586192e-04  2.84760943443e-04  2.88342795171e-04  2.91969701047e-04
       2.95642227783e-04  2.99360949219e-04  3.03126446412e-04  3.06939307729e-04
       3.10800128937e-04  3.14709513297e-04  3.18668071660e-04  3.22676422557e-04
       3.26735192301e-04  3.30845015084e-04  3.35006533074e-04  3.39220396516e-04
       3.43487263835e-04  3.47807801738e-04  3.52182685318e-04  3.56612598158e-04
       3.61098232443e-04  3.65640289061e-04  3.70239477719e-04  3.74896517048e-04
       3.79612134720e-04  3.84387067561e-04  3.89222061663e-04  3.94117872504e-04
       3.99075265065e-04  4.04095013947e-04  4.09177903498e-04  4.14324727929e-04
       4.19536291441e-04  4.24813408353e-04  4.30156903223e-04  4.35567610985e-04
       4.41046377073e-04  4.46594057554e-04  4.52211519265e-04  4.57899639947e-04
       4.63659308378e-04  4.69491424520e-04  4.75396899652e-04  4.81376656517e-04
       4.87431629464e-04  4.93562764594e-04  4.99771019911e-04  5.06057365466e-04
       5.12422783515e-04  5.18868268665e-04  5.25394828039e-04  5.32003481423e-04
       5.38695261433e-04  5.45471213674e-04  5.52332396902e-04  5.59279883191e-04
       5.66314758100e-04  5.73438120841e-04  5.80651084456e-04  5.87954775984e-04
       5.95350336641e-04  6.02838922000e-04  6.10421702168e-04  6.18099861968e-04
       6.25874601129e-04  6.33747134470e-04  6.41718692089e-04  6.49790519561e-04
       6.57963878123e-04  6.66240044879e-04  6.74620312998e-04  6.83105991913e-04
       6.91698407530e-04  7.00398902430e-04  7.09208836083e-04  7.18129585060e-04
       7.27162543245e-04  7.36309122058e-04  7.45570750668e-04  7.54948876226e-04
       7.64444964081e-04  7.74060498017e-04  7.83796980481e-04  7.93655932818e-04
       8.03638895509e-04  8.13747428412e-04  8.23983111007e-04  8.34347542639e-04
       8.44842342772e-04  8.55469151240e-04  8.66229628503e-04  8.77125455908e-04
       8.88158335951e-04  8.99329992540e-04  9.10642171270e-04  9.22096639692e-04
       9.33695187590e-04  9.45439627261e-04  9.57331793797e-04  9.69373545374e-04
       9.81566763539e-04  9.93913353508e-04  1.00641524446e-03  1.01907438984e-03
       1.03189276767e-03  1.04487238085e-03  1.05801525745e-03  1.07132345110e-03
       1.08479904121e-03  1.09844413338e-03  1.11226085969e-03  1.12625137901e-03
       1.14041787740e-03  1.15476256841e-03  1.16928769342e-03  1.18399552201e-03
       1.19888835230e-03  1.21396851135e-03  1.22923835544e-03  1.24470027052e-03
       1.26035667256e-03  1.27621000789e-03  1.29226275363e-03  1.30851741805e-03
       1.32497654099e-03  1.34164269420e-03  1.35851848181e-03  1.37560654070e-03
       1.39290954092e-03  1.41043018608e-03  1.42817121382e-03  1.44613539623e-03
       1.46432554023e-03  1.48274448808e-03  1.50139511777e-03  1.52028034350e-03
       1.53940311613e-03  1.55876642363e-03  1.57837329155e-03  1.59822678351e-03
       1.61833000166e-03  1.63868608716e-03  1.65929822070e-03  1.68016962296e-03
       1.70130355514e-03  1.72270331947e-03  1.74437225969e-03  1.76631376163e-03
       1.78853125368e-03  1.81102820739e-03  1.83380813793e-03  1.85687460473e-03
       1.88023121196e-03  1.90388160915e-03  1.92782949171e-03  1.95207860155e-03
       1.97663272764e-03  2.00149570662e-03  2.02667142337e-03  2.05216381166e-03
       2.07797685472e-03  2.10411458589e-03  2.13058108924e-03  2.15738050023e-03
       2.18451700630e-03  2.21199484761e-03  2.23981831761e-03  2.26799176377e-03
       2.29651958827e-03  2.32540624862e-03  2.35465625843e-03  2.38427418807e-03
       2.41426466541e-03  2.44463237651e-03  2.47538206639e-03  2.50651853976e-03
       2.53804666175e-03  2.56997135869e-03  2.60229761888e-03  2.63503049338e-03
       2.66817509675e-03  2.70173660790e-03  2.73572027090e-03  2.77013139576e-03
       2.80497535928e-03  2.84025760591e-03  2.87598364857e-03  2.91215906952e-03
       2.94878952126e-03  2.98588072736e-03  3.02343848339e-03  3.06146865784e-03
       3.09997719300e-03  3.13897010590e-03  3.17845348926e-03  3.21843351245e-03
       3.25891642242e-03  3.29990854472e-03  3.34141628443e-03  3.38344612725e-03
       3.42600464040e-03  3.46909847374e-03  3.51273436079e-03  3.55691911972e-03
       3.60165965450e-03  3.64696295593e-03  3.69283610274e-03  3.73928626271e-03
       3.78632069376e-03  3.83394674512e-03  3.88217185847e-03  3.93100356906e-03
       3.98044950696e-03  4.03051739819e-03  4.08121506597e-03  4.13255043190e-03
       4.18453151725e-03  4.23716644416e-03  4.29046343695e-03  4.34443082338e-03
       4.39907703596e-03  4.45441061328e-03  4.51044020132e-03  4.56717455482e-03
       4.62462253864e-03  4.68279312913e-03  4.74169541558e-03  4.80133860159e-03
       4.86173200652e-03  4.92288506696e-03  4.98480733822e-03  5.04750849576e-03
       5.11099833678e-03  5.17528678168e-03  5.24038387567e-03  5.30629979031e-03
       5.37304482508e-03  5.44062940904e-03  5.50906410241e-03  5.57835959826e-03
       5.64852672414e-03  5.71957644382e-03  5.79151985895e-03  5.86436821084e-03
       5.93813288220e-03  6.01282539890e-03  6.08845743180e-03  6.16504079856e-03
       6.24258746549e-03  6.32110954942e-03  6.40061931957e-03  6.48112919951e-03
       6.56265176907e-03  6.64519976633e-03  6.72878608957e-03  6.81342379932e-03
       6.89912612041e-03  6.98590644398e-03  7.07377832966e-03  7.16275550759e-03
       7.25285188064e-03  7.34408152655e-03  7.43645870014e-03  7.52999783553e-03
       7.62471354841e-03  7.72062063829e-03  7.81773409085e-03  7.91606908027e-03
       8.01564097159e-03  8.11646532312e-03  8.21855788886e-03  8.32193462100e-03
       8.42661167236e-03  8.53260539893e-03  8.63993236246e-03  8.74860933299e-03
       8.85865329154e-03  8.97008143268e-03  9.08291116729e-03  9.19716012526e-03
       9.31284615821e-03  9.42998734231e-03  9.54860198113e-03  9.66870860843e-03
       9.79032599112e-03  9.91347313217e-03  1.00381692736e-02  1.01644338993e-02
       1.02922867386e-02  1.04217477685e-02  1.05528372178e-02  1.06855755694e-02
       1.08199835639e-02  1.09560822028e-02  1.10938927519e-02  1.12334367442e-02
       1.13747359840e-02  1.15178125493e-02  1.16626887963e-02  1.18093873622e-02
       1.19579311688e-02  1.21083434266e-02  1.22606476376e-02  1.24148675998e-02
       1.25710274103e-02  1.27291514694e-02  1.28892644843e-02  1.30513914730e-02
       1.32155577682e-02  1.33817890211e-02  1.35501112059e-02  1.37205506230e-02
       1.38931339041e-02  1.40678880157e-02  1.42448402634e-02  1.44240182964e-02
       1.46054501115e-02  1.47891640580e-02  1.49751888414e-02  1.51635535286e-02
       1.53542875518e-02  1.55474207137e-02  1.57429831917e-02  1.59410055429e-02
       1.61415187086e-02  1.63445540195e-02  1.65501432002e-02  1.67583183744e-02
       1.69691120700e-02  1.71825572239e-02  1.73986871873e-02  1.76175357309e-02
       1.78391370504e-02  1.80635257713e-02  1.82907369549e-02  1.85208061033e-02
       1.87537691653e-02  1.89896625420e-02  1.92285230921e-02  1.94703881380e-02
       1.97152954716e-02  1.99632833603e-02  2.02143905527e-02  2.04686562847e-02
       2.07261202858e-02  2.09868227855e-02  2.12508045189e-02  2.15181067337e-02
       2.17887711965e-02  2.20628401991e-02  2.23403565654e-02  2.26213636579e-02
       2.29059053845e-02  2.31940262053e-02  2.34857711400e-02  2.37811857742e-02
       2.40803162670e-02  2.43832093582e-02  2.46899123756e-02  2.50004732419e-02
       2.53149404831e-02  2.56333632352e-02  2.59557912525e-02  2.62822749150e-02
       2.66128652364e-02  2.69476138721e-02  2.72865731273e-02  2.76297959651e-02
       2.79773360147e-02  2.83292475800e-02  2.86855856479e-02  2.90464058969e-02
       2.94117647059e-02  2.97817191630e-02  3.01563270742e-02  3.05356469730e-02
       3.09197381287e-02  3.13086605564e-02  3.17024750260e-02  3.21012430719e-02
       3.25050270022e-02  3.29138899092e-02  3.33278956784e-02  3.37471089992e-02
       3.41715953744e-02  3.46014211308e-02  3.50366534298e-02  3.54773602771e-02
       3.59236105341e-02  3.63754739284e-02  3.68330210645e-02  3.72963234350e-02
       3.77654534320e-02  3.82404843579e-02  3.87214904373e-02  3.92085468283e-02
       3.97017296346e-02  4.02011159169e-02  4.07067837053e-02  4.12188120115e-02
       4.17372808410e-02  4.22622712055e-02  4.27938651358e-02  4.33321456947e-02
       4.38771969894e-02  4.44291041855e-02  4.49879535195e-02  4.55538323128e-02
       4.61268289850e-02  4.67070330681e-02  4.72945352202e-02  4.78894272396e-02
       4.84918020794e-02  4.91017538620e-02  4.97193778935e-02  5.03447706790e-02
       5.09780299373e-02  5.16192546165e-02  5.22685449092e-02  5.29260022685e-02
       5.35917294233e-02  5.42658303948e-02  5.49484105127e-02  5.56395764316e-02
       5.63394361475e-02  5.70480990149e-02  5.77656757638e-02  5.84922785171e-02
       5.92280208080e-02  5.99730175975e-02  6.07273852931e-02  6.14912417662e-02
       6.22647063710e-02  6.30478999627e-02  6.38409449172e-02  6.46439651491e-02
       6.54570861321e-02  6.62804349180e-02  6.71141401567e-02  6.79583321164e-02
       6.88131427037e-02  6.96787054846e-02  7.05551557049e-02  7.14426303119e-02
       7.23412679752e-02  7.32512091088e-02  7.41725958929e-02  7.51055722960e-02
       7.60502840975e-02  7.70068789107e-02  7.79755062054e-02  7.89563173315e-02
       7.99494655429e-02  8.09551060209e-02  8.19733958990e-02  8.30044942869e-02
       8.40485622960e-02  8.51057630639e-02  8.61762617804e-02  8.72602257132e-02
       8.83578242337e-02  8.94692288441e-02  9.05946132035e-02  9.17341531555e-02
       9.28880267556e-02  9.40564142988e-02  9.52394983482e-02  9.64374637629e-02
       9.76504977275e-02  9.88787897811e-02  1.00122531847e-01  1.01381918262e-01
       1.02657145808e-01  1.03948413742e-01  1.05255923827e-01  1.06579880364e-01
       1.07920490224e-01  1.09277962881e-01  1.10652510441e-01  1.12044347682e-01
       1.13453692079e-01  1.14880763847e-01  1.16325785968e-01  1.17788984230e-01
       1.19270587260e-01  1.20770826562e-01  1.22289936552e-01  1.23828154592e-01
       1.25385721034e-01  1.26962879250e-01  1.28559875674e-01  1.30176959841e-01
       1.31814384422e-01  1.33472405269e-01  1.35151281450e-01  1.36851275295e-01
       1.38572652429e-01  1.40315681823e-01  1.42080635827e-01  1.43867790219e-01
       1.45677424247e-01  1.47509820668e-01  1.49365265799e-01  1.51244049557e-01
       1.53146465505e-01  1.55072810900e-01  1.57023386737e-01  1.58998497798e-01
       1.60998452698e-01  1.63023563933e-01  1.65074147932e-01  1.67150525103e-01
       1.69253019883e-01  1.71381960791e-01  1.73537680480e-01  1.75720515784e-01
       1.77930807777e-01  1.80168901820e-01  1.82435147621e-01  1.84729899284e-01
       1.87053515371e-01  1.89406358949e-01  1.91788797657e-01  1.94201203754e-01
       1.96643954185e-01  1.99117430633e-01  2.01622019585e-01  2.04158112388e-01
       2.06726105311e-01  2.09326399609e-01  2.11959401583e-01  2.14625522644e-01
       2.17325179380e-01  2.20058793618e-01  2.22826792489e-01  2.25629608501e-01
       2.28467679597e-01  2.31341449234e-01  2.34251366442e-01  2.37197885903e-01
       2.40181468017e-01  2.43202578973e-01  2.46261690827e-01  2.49359281572e-01
       2.52495835211e-01  2.55671841839e-01  2.58887797711e-01  2.62144205329e-01
       2.65441573513e-01  2.68780417482e-01  2.72161258938e-01  2.75584626145e-01
       2.79051054011e-01  2.82561084171e-01  2.86115265075e-01  2.89714152072e-01
       2.93358307495e-01  2.97048300749e-01  3.00784708406e-01  3.04568114284e-01
       3.08399109551e-01  3.12278292805e-01  3.16206270179e-01  3.20183655425e-01
       3.24211070019e-01  3.28289143252e-01  3.32418512332e-01  3.36599822480e-01
       3.40833727036e-01  3.45120887555e-01  3.49461973915e-01  3.53857664419e-01
       3.58308645903e-01  3.62815613842e-01  3.67379272459e-01  3.72000334835e-01
       3.76679523020e-01  3.81417568146e-01  3.86215210544e-01  3.91073199854e-01
       3.95992295147e-01  4.00973265042e-01  4.06016887826e-01  4.11123951574e-01
       4.16295254276e-01  4.21531603958e-01  4.26833818811e-01  4.32202727317e-01
       4.37639168379e-01  4.43143991450e-01  4.48718056672e-01  4.54362235004e-01
       4.60077408358e-01  4.65864469744e-01  4.71724323402e-01  4.77657884944e-01
       4.83666081503e-01  4.89749851871e-01  4.95910146650e-01  5.02147928398e-01
       5.08464171781e-01  5.14859863726e-01  5.21336003572e-01  5.27893603230e-01
       5.34533687337e-01  5.41257293420e-01  5.48065472056e-01  5.54959287037e-01
       5.61939815536e-01  5.69008148275e-01  5.76165389694e-01  5.83412658128e-01
       5.90751085976e-01  5.98181819884e-01  6.05706020918e-01  6.13324864750e-01
       6.21039541839e-01  6.28851257621e-01  6.36761232692e-01  6.44770703000e-01
       6.52880920042e-01  6.61093151057e-01  6.69408679221e-01  6.77828803854e-01
       6.86354840616e-01  6.94988121718e-01  7.03729996129e-01  7.12581829783e-01
       7.21545005797e-01  7.30620924687e-01  7.39811004583e-01  7.49116681453e-01
       7.58539409329e-01  7.68080660531e-01  7.77741925899e-01  7.87524715025e-01
       7.97430556490e-01  8.07460998102e-01  8.17617607137e-01  8.27901970587e-01
       8.38315695405e-01  8.48860408755e-01  8.59537758272e-01  8.70349412311e-01
       8.81297060218e-01  8.92382412582e-01  9.03607201515e-01  9.14973180911e-01
       9.26482126728e-01  9.38135837262e-01  9.49936133430e-01  9.61884859051e-01
       9.73983881138e-01  9.86235090188e-01  9.98640400478e-01  1.01120175036e+00
       1.02392110258e+00  1.03680044455e+00  1.04984178870e+00  1.06304717276e+00
       1.07641866011e+00  1.08995834006e+00  1.10366832822e+00  1.11755076681e+00
       1.13160782497e+00  1.14584169916e+00  1.16025461345e+00  1.17484881988e+00
       1.18962659883e+00  1.20459025935e+00  1.21974213955e+00  1.23508460695e+00
       1.25062005883e+00  1.26635092263e+00  1.28227965634e+00  1.29840874886e+00
       1.31474072039e+00  1.33127812283e+00  1.34802354019e+00  1.36497958896e+00
       1.38214891858e+00  1.39953421177e+00  1.41713818503e+00  1.43496358902e+00
       1.45301320899e+00  1.47128986522e+00  1.48979641350e+00  1.50853574549e+00
       1.52751078926e+00  1.54672450970e+00  1.56617990899e+00  1.58588002708e+00
       1.60582794215e+00  1.62602677110e+00  1.64647967005e+00  1.66718983479e+00
       1.68816050134e+00  1.70939494640e+00  1.73089648789e+00  1.75266848549e+00
       1.77471434110e+00  1.79703749944e+00  1.81964144854e+00  1.84252972032e+00
       1.86570589112e+00  1.88917358226e+00  1.91293646062e+00  1.93699823919e+00
       1.96136267767e+00  1.98603358307e+00  2.01101481025e+00  2.03631026259e+00
       2.06192389255e+00  2.08785970231e+00  2.11412174440e+00  2.14071412231e+00
       2.16764099116e+00  2.19490655833e+00  2.22251508411e+00  2.25047088239e+00
       2.27877832133e+00  2.30744182402e+00  2.33646586918e+00  2.36585499190e+00
       2.39561378426e+00  2.42574689616e+00  2.45625903594e+00  2.48715497120e+00
       2.51843952948e+00  2.55011759906e+00  2.58219412970e+00  2.61467413343e+00
       2.64756268531e+00  2.68086492425e+00  2.71458605378e+00  2.74873134291e+00
       2.78330612691e+00  2.81831580815e+00  2.85376585697e+00  2.88966181251e+00
       2.92600928359e+00  2.96281394957e+00  3.00008156126e+00  3.03781794179e+00
       3.07602898756e+00  3.11472066912e+00  3.15389903212e+00  3.19357019826e+00
       3.23374036624e+00  3.27441581273e+00  3.31560289335e+00  3.35730804368e+00
       3.39953778021e+00  3.44229870144e+00  3.48559748884e+00  3.52944090795e+00
       3.57383580937e+00  3.61878912992e+00  3.66430789362e+00  3.71039921289e+00
       3.75707028959e+00  3.80432841616e+00  3.85218097679e+00  3.90063544853e+00
       3.94969940250e+00  3.99938050503e+00  4.04968651891e+00  4.10062530454e+00
       4.15220482122e+00  4.20443312835e+00  4.25731838671e+00  4.31086885973e+00
       4.36509291478e+00  4.41999902448e+00  4.47559576802e+00  4.53189183250e+00
       4.58889601431e+00  4.64661722045e+00  4.70506446998e+00  4.76424689541e+00
       4.82417374411e+00  4.88485437978e+00  4.94629828388e+00  5.00851505715e+00
       5.07151442108e+00  5.13530621947e+00  5.19990041990e+00  5.26530711534e+00
       5.33153652574e+00  5.39859899957e+00  5.46650501547e+00  5.53526518390e+00
       5.60489024878e+00  5.67539108917e+00  5.74677872096e+00  5.81906429861e+00
       5.89225911691e+00  5.96637461267e+00  6.04142236661e+00  6.11741410509e+00
       6.19436170196e+00  6.27227718045e+00  6.35117271502e+00  6.43106063324e+00
       6.51195341777e+00  6.59386370827e+00  6.67680430339e+00  6.76078816277e+00
       6.84582840905e+00  6.93193832995e+00  7.01913138031e+00  7.10742118424e+00
       7.19682153718e+00  7.28734640814e+00  7.37900994179e+00  7.47182646076e+00
       7.56581046782e+00  7.66097664815e+00  7.75733987167e+00  7.85491519533e+00
       7.95371786548e+00  8.05376332021e+00  8.15506719186e+00  8.25764530934e+00
       8.36151370070e+00  8.46668859559e+00  8.57318642780e+00  8.68102383783e+00
       8.79021767550e+00  8.90078500256e+00  9.01274309539e+00  9.12610944767e+00
       9.24090177311e+00  9.35713800825e+00  9.47483631525e+00  9.59401508470e+00
       9.71469293852e+00  9.83688873288e+00  9.96062156112e+00  1.00859107567e+01
       1.02127758964e+01  1.03412368031e+01  1.04713135491e+01  1.06030264592e+01
       1.07363961137e+01  1.08714433519e+01  1.10081892753e+01  1.11466552507e+01
       1.12868629136e+01  1.14288341718e+01  1.15725912086e+01  1.17181564863e+01
       1.18655527498e+01  1.20148030301e+01  1.21659306477e+01  1.23189592168e+01
       1.24739126484e+01  1.26308151541e+01  1.27896912505e+01  1.29505657621e+01
       1.31134638260e+01  1.32784108952e+01  1.34454327432e+01  1.36145554674e+01
       1.37858054936e+01  1.39592095800e+01  1.41347948212e+01  1.43125886529e+01
       1.44926188557e+01  1.46749135597e+01  1.48595012487e+01  1.50464107651e+01
       1.52356713138e+01  1.54273124671e+01  1.56213641694e+01  1.58178567416e+01
       1.60168208861e+01  1.62182876914e+01  1.64222886372e+01  1.66288555990e+01
       1.68380208533e+01  1.70498170827e+01  1.72642773806e+01  1.74814352571e+01
       1.77013246433e+01  1.79239798975e+01  1.81494358101e+01  1.83777276089e+01
       1.86088909651e+01  1.88429619983e+01  1.90799772827e+01  1.93199738523e+01
       1.95629892072e+01  1.98090613189e+01  2.00582286368e+01  2.03105300937e+01
       2.05660051122e+01  2.08246936109e+01  2.10866360104e+01  2.13518732396e+01
       2.16204467424e+01  2.18923984840e+01  2.21677709575e+01  2.24466071902e+01
       2.27289507510e+01  2.30148457566e+01  2.33043368787e+01  2.35974693508e+01
       2.38942889755e+01  2.41948421315e+01  2.44991757808e+01  2.48073374761e+01
       2.51193753684e+01  2.54353382142e+01  2.57552753834e+01  2.60792368667e+01
       2.64072732838e+01  2.67394358912e+01  2.70757765897e+01  2.74163479335e+01
       2.77612031374e+01  2.81103960858e+01  2.84639813407e+01  2.88220141507e+01
       2.91845504590e+01  2.95516469127e+01  2.99233608713e+01  3.02997504159e+01
       3.06808743582e+01  3.10667922496e+01  3.14575643904e+01  3.18532518397e+01
       3.22539164244e+01  3.26596207491e+01  3.30704282060e+01  3.34864029847e+01
       3.39076100819e+01  3.43341153121e+01  3.47659853178e+01  3.52032875794e+01
       3.56460904263e+01  3.60944630473e+01  3.65484755016e+01  3.70081987296e+01
       3.74737045639e+01  3.79450657408e+01  3.84223559115e+01  3.89056496534e+01
       3.93950224822e+01  3.98905508634e+01  4.03923122244e+01  4.09003849663e+01
       4.14148484766e+01  4.19357831412e+01  4.24632703573e+01  4.29973925457e+01
       4.35382331643e+01  4.40858767203e+01  4.46404087842e+01  4.52019160029e+01
       4.57704861129e+01  4.63462079544e+01  4.69291714853e+01  4.75194677946e+01
       4.81171891175e+01  4.87224288491e+01  4.93352815593e+01  4.99558430077e+01
       5.05842101581e+01  5.12204811943e+01  5.18647555349e+01  5.25171338491e+01
       5.31777180722e+01  5.38466114221e+01  5.45239184144e+01  5.52097448800e+01
       5.59041979806e+01  5.66073862258e+01  5.73194194903e+01  5.80404090307e+01
       5.87704675031e+01  5.95097089806e+01  6.02582489712e+01  6.10162044358e+01
       6.17836938065e+01  6.25608370050e+01  6.33477554616e+01  6.41445721339e+01
       6.49514115261e+01  6.57683997085e+01  6.65956643371e+01  6.74333346738e+01
       6.82815416062e+01  6.91404176684e+01  7.00100970616e+01  7.08907156748e+01
       7.17824111066e+01  7.26853226862e+01  7.35995914953e+01  7.45253603903e+01
       7.54627740246e+01  7.64119788707e+01  7.73731232441e+01  7.83463573254e+01
       7.93318331844e+01  8.03297048037e+01  8.13401281029e+01  8.23632609625e+01
       8.33992632493e+01  8.44482968406e+01  8.55105256501e+01  8.65861156532e+01
       8.76752349130e+01  8.87780536067e+01  8.98947440518e+01  9.10254807336e+01
       9.21704403320e+01  9.33298017492e+01  9.45037461378e+01  9.56924569290e+01
       9.68961198613e+01  9.81149230094e+01  9.93490568139e+01
    </PP_R>
    <PP_RAB type="real" size="1211" columns="4">
       3.35250722630e-07  3.39467657599e-07  3.43737635080e-07  3.48061322265e-07
       3.52439394740e-07  3.56872536588e-07  3.61361440496e-07  3.65906807864e-07
       3.70509348915e-07  3.75169782806e-07  3.79888837738e-07  3.84667251074e-07
       3.89505769451e-07  3.94405148897e-07  3.99366154950e-07  4.04389562777e-07
       4.09476157296e-07  4.14626733297e-07  4.19842095570e-07  4.25123059024e-07
       4.30470448820e-07  4.35885100500e-07  4.41367860114e-07  4.46919584354e-07
       4.52541140689e-07  4.58233407497e-07  4.63997274208e-07  4.69833641436e-07
       4.75743421127e-07  4.81727536696e-07  4.87786923172e-07  4.93922527347e-07
       5.00135307922e-07  5.06426235656e-07  5.12796293521e-07  5.19246476849e-07
       5.25777793496e-07  5.32391263992e-07  5.39087921707e-07  5.45868813006e-07
       5.52734997418e-07  5.59687547798e-07  5.66727550496e-07  5.73856105527e-07
       5.81074326741e-07  5.88383342002e-07  5.95784293356e-07  6.03278337219e-07
       6.10866644549e-07  6.18550401035e-07  6.26330807280e-07  6.34209078988e-07
       6.42186447155e-07  6.50264158260e-07  6.58443474464e-07  6.66725673799e-07
       6.75112050378e-07  6.83603914588e-07  6.92202593301e-07  7.00909430077e-07
       7.09725785378e-07  7.18653036776e-07  7.27692579174e-07  7.36845825018e-07
       7.46114204520e-07  7.55499165886e-07  7.65002175533e-07  7.74624718326e-07
       7.84368297808e-07  7.94234436432e-07  8.04224675803e-07  8.14340576915e-07
       8.24583720399e-07  8.34955706767e-07  8.45458156664e-07  8.56092711117e-07
       8.66861031798e-07  8.77764801279e-07  8.88805723296e-07  8.99985523015e-07
       9.11305947304e-07  9.22768765001e-07  9.34375767194e-07  9.46128767503e-07
       9.58029602356e-07  9.70080131284e-07  9.82282237206e-07  9.94637826726e-07
       1.00714883043e-06  1.01981720319e-06  1.03264492446e-06  1.04563399860e-06
       1.05878645518e-06  1.07210434930e-06  1.08558976190e-06  1.09924480012e-06
       1.11307159756e-06  1.12707231472e-06  1.14124913921e-06  1.15560428620e-06
       1.17013999872e-06  1.18485854799e-06  1.19976223381e-06  1.21485338493e-06
       1.23013435936e-06  1.24560754479e-06  1.26127535893e-06  1.27714024991e-06
       1.29320469666e-06  1.30947120927e-06  1.32594232942e-06  1.34262063075e-06
       1.35950871930e-06  1.37660923384e-06  1.39392484638e-06  1.41145826251e-06
       1.42921222187e-06  1.44718949854e-06  1.46539290152e-06  1.48382527512e-06
       1.50248949944e-06  1.52138849079e-06  1.54052520220e-06  1.55990262380e-06
       1.57952378336e-06  1.59939174673e-06  1.61950961831e-06  1.63988054157e-06
       1.66050769949e-06  1.68139431512e-06  1.70254365203e-06  1.72395901486e-06
       1.74564374978e-06  1.76760124510e-06  1.78983493170e-06  1.81234828366e-06
       1.83514481872e-06  1.85822809889e-06  1.88160173098e-06  1.90526936717e-06
       1.92923470558e-06  1.95350149084e-06  1.97807351467e-06  2.00295461652e-06
       2.02814868410e-06  2.05365965404e-06  2.07949151248e-06  2.10564829570e-06
       2.13213409075e-06  2.15895303609e-06  2.18610932223e-06  2.21360719240e-06
       2.24145094320e-06  2.26964492527e-06  2.29819354398e-06  2.32710126011e-06
       2.35637259054e-06  2.38601210898e-06  2.41602444667e-06  2.44641429309e-06
       2.47718639672e-06  2.50834556577e-06  2.53989666892e-06  2.57184463609e-06