<UPF version="2.0.1">
  <PP_INFO>
Converted from CP2K GTH format
       <PP_INPUTFILE>
W 
    4    6    4    0
    0.54000000000000       2   13.41481123000000   -2.21345603000000
       3
    0.39702790000000       3   -4.14121089000000    3.83542346000000    2.23317927000000
                                                   -1.31924404000000   -5.76604408000000
                                                                        4.57665561000000
    0.35353069000000       2   -7.45623626000000    8.11232637000000
                                                   -9.59863401000000
    0.41210703000000       2   -0.95466075000000   -1.06744623000000
                                                    1.21037026000000
       </PP_INPUTFILE>
  </PP_INFO>
  <PP_HEADER
    generated="Generated in analytical, separable form"
    author="Goedecker/Hartwigsen/Hutter/Teter"
    date="Phys.Rev.B58, 3641 (1998); B54, 1703 (1996)"
    comment="This file generated by CP2K ATOM code"
    element="W"
    pseudo_type="NC"
    relativistic="scalar"
    is_ultrasoft="F"
    is_paw="F"
    is_coulomb="F"
    has_so="F"
    has_wfc="T"
    has_gipaw="F"
    paw_as_gipaw="F"
    core_correction="F"
    functional="PBE"
    z_valence="14.0000000000"
    total_psenergy="-135.6546600000"
    wfc_cutoff="0.0000000000"
    rho_cutoff="0.0000000000"
    l_max="2"
    l_max_rho="0"
    l_local="-3"
    mesh_size="1273"
    number_of_wfc="4"
    number_of_proj="7"/>
  <PP_MESH dx="1.2500000000000001e-02" mesh="1273" xmin="-7.0000000000000000e+00" rmax="9.9080723502108043e+01" zmesh="7.4000000000000000e+01">
    <PP_R type="real" size="1273" columns="4">
       1.23227292643e-05  1.24777301171e-05  1.26346806408e-05  1.27936053589e-05
       1.29545291040e-05  1.31174770205e-05  1.32824745696e-05  1.34495475323e-05
       1.36187220142e-05  1.37900244491e-05  1.39634816033e-05  1.41391205800e-05
       1.43169688231e-05  1.44970541216e-05  1.46794046144e-05  1.48640487940e-05
       1.50510155114e-05  1.52403339807e-05  1.54320337831e-05  1.56261448722e-05
       1.58226975783e-05  1.60217226130e-05  1.62232510745e-05  1.64273144519e-05
       1.66339446307e-05  1.68431738972e-05  1.70550349438e-05  1.72695608744e-05
       1.74867852090e-05  1.77067418894e-05  1.79294652841e-05  1.81549901944e-05
       1.83833518588e-05  1.86145859593e-05  1.88487286267e-05  1.90858164463e-05
       1.93258864636e-05  1.95689761900e-05  1.98151236087e-05  2.00643671808e-05
       2.03167458510e-05  2.05722990542e-05  2.08310667209e-05  2.10930892842e-05
       2.13584076856e-05  2.16270633817e-05  2.18990983504e-05  2.21745550978e-05
       2.24534766645e-05  2.27359066327e-05  2.30218891325e-05  2.33114688493e-05
       2.36046910306e-05  2.39016014928e-05  2.42022466289e-05  2.45066734153e-05
       2.48149294193e-05  2.51270628065e-05  2.54431223484e-05  2.57631574299e-05
       2.60872180571e-05  2.64153548653e-05  2.67476191264e-05  2.70840627574e-05
       2.74247383283e-05  2.77696990704e-05  2.81189988845e-05  2.84726923493e-05
       2.88308347302e-05  2.91934819878e-05  2.95606907863e-05  2.99325185028e-05
       3.03090232363e-05  3.06902638163e-05  3.10762998125e-05  3.14671915438e-05
       3.18630000877e-05  3.22637872902e-05  3.26696157752e-05  3.30805489541e-05
       3.34966510360e-05  3.39179870379e-05  3.43446227942e-05  3.47766249677e-05
       3.52140610596e-05  3.56569994202e-05  3.61055092595e-05  3.65596606580e-05
       3.70195245780e-05  3.74851728739e-05  3.79566783044e-05  3.84341145431e-05
       3.89175561904e-05  3.94070787850e-05  3.99027588159e-05  4.04046737340e-05
       4.09129019645e-05  4.14275229193e-05  4.19486170088e-05  4.24762656550e-05
       4.30105513042e-05  4.35515574395e-05  4.40993685943e-05  4.46540703651e-05
       4.52157494253e-05  4.57844935383e-05  4.63603915716e-05  4.69435335104e-05
       4.75340104718e-05  4.81319147190e-05  4.87373396759e-05  4.93503799412e-05
       4.99711313038e-05  5.05996907574e-05  5.12361565155e-05  5.18806280274e-05
       5.25332059929e-05  5.31939923788e-05  5.38630904342e-05  5.45406047070e-05
       5.52266410603e-05  5.59213066887e-05  5.66247101349e-05  5.73369613074e-05
       5.80581714967e-05  5.87884533934e-05  5.95279211055e-05  6.02766901765e-05
       6.10348776029e-05  6.18026018531e-05  6.25799828856e-05  6.33671421677e-05
       6.41642026947e-05  6.49712890090e-05  6.57885272193e-05  6.66160450209e-05
       6.74539717150e-05  6.83024382294e-05  6.91615771388e-05  7.00315226853e-05
       7.09124107997e-05  7.18043791226e-05  7.27075670258e-05  7.36221156343e-05
       7.45481678481e-05  7.54858683648e-05  7.64353637021e-05  7.73968022204e-05
       7.83703341465e-05  7.93561115968e-05  8.03542886010e-05  8.13650211262e-05
       8.23884671016e-05  8.34247864425e-05  8.44741410761e-05  8.55366949660e-05
       8.66126141386e-05  8.77020667083e-05  8.88052229045e-05  8.99222550973e-05
       9.10533378255e-05  9.21986478229e-05  9.33583640467e-05  9.45326677048e-05
       9.57217422845e-05  9.69257735812e-05  9.81449497272e-05  9.93794612213e-05
       1.00629500958e-04  1.01895264260e-04  1.03176948904e-04  1.04474755155e-04
       1.05788885800e-04  1.07119546174e-04  1.08466944195e-04  1.09831290396e-04
       1.11212797960e-04  1.12611682750e-04  1.14028163344e-04  1.15462461071e-04
       1.16914800042e-04  1.18385407189e-04  1.19874512296e-04  1.21382348040e-04
       1.22909150023e-04  1.24455156810e-04  1.26020609969e-04  1.27605754105e-04
       1.29210836899e-04  1.30836109150e-04  1.32481824808e-04  1.34148241022e-04
       1.35835618171e-04  1.37544219911e-04  1.39274313216e-04  1.41026168416e-04
       1.42800059241e-04  1.44596262866e-04  1.46415059952e-04  1.48256734688e-04
       1.50121574841e-04  1.52009871795e-04  1.53921920602e-04  1.55858020021e-04
       1.57818472573e-04  1.59803584582e-04  1.61813666227e-04  1.63849031586e-04
       1.65909998690e-04  1.67996889569e-04  1.70110030303e-04  1.72249751076e-04
       1.74416386223e-04  1.76610274285e-04  1.78831758061e-04  1.81081184664e-04
       1.83358905570e-04  1.85665276679e-04  1.88000658364e-04  1.90365415535e-04
       1.92759917689e-04  1.95184538973e-04  1.97639658238e-04  2.00125659101e-04
       2.02642930006e-04  2.05191864282e-04  2.07772860203e-04  2.10386321057e-04
       2.13032655201e-04  2.15712276131e-04  2.18425602543e-04  2.21173058400e-04
       2.23955072997e-04  2.26772081030e-04  2.29624522662e-04  2.32512843593e-04
       2.35437495128e-04  2.38398934252e-04  2.41397623693e-04  2.44434032005e-04
       2.47508633632e-04  2.50621908986e-04  2.53774344523e-04  2.56966432818e-04
       2.60198672640e-04  2.63471569035e-04  2.66785633399e-04  2.70141383560e-04
       2.73539343862e-04  2.76980045243e-04  2.80464025320e-04  2.83991828472e-04
       2.87564005924e-04  2.91181115837e-04  2.94843723392e-04  2.98552400879e-04
       3.02307727786e-04  3.06110290890e-04  3.09960684350e-04  3.13859509798e-04
       3.17807376433e-04  3.21804901116e-04  3.25852708470e-04  3.29951430973e-04
       3.34101709059e-04  3.38304191216e-04  3.42559534091e-04  3.46868402590e-04
       3.51231469983e-04  3.55649418008e-04  3.60122936978e-04  3.64652725889e-04
       3.69239492531e-04  3.73883953595e-04  3.78586834787e-04  3.83348870942e-04
       3.88170806138e-04  3.93053393813e-04  3.97997396880e-04  4.03003587850e-04
       4.08072748950e-04  4.13205672248e-04  4.18403159773e-04  4.23666023642e-04
       4.28995086190e-04  4.34391180093e-04  4.39855148501e-04  4.45387845172e-04
       4.50990134599e-04  4.56662892152e-04  4.62407004212e-04  4.68223368306e-04
       4.74112893255e-04  4.80076499307e-04  4.86115118290e-04  4.92229693748e-04
       4.98421181098e-04  5.04690547771e-04  5.11038773369e-04  5.17466849815e-04
       5.23975781510e-04  5.30566585486e-04  5.37240291571e-04  5.43997942544e-04
       5.50840594302e-04  5.57769316024e-04  5.64785190337e-04  5.71889313484e-04
       5.79082795501e-04  5.86366760382e-04  5.93742346262e-04  6.01210705592e-04
       6.08773005318e-04  6.16430427065e-04  6.24184167320e-04  6.32035437621e-04
       6.39985464745e-04  6.48035490900e-04  6.56186773919e-04  6.64440587456e-04
       6.72798221187e-04  6.81260981009e-04  6.89830189245e-04  6.98507184852e-04
       7.07293323627e-04  7.16189978424e-04  7.25198539361e-04  7.34320414046e-04
       7.43557027789e-04  7.52909823831e-04  7.62380263565e-04  7.71969826765e-04
       7.81680011822e-04  7.91512335971e-04  8.01468335533e-04  8.11549566153e-04
       8.21757603043e-04  8.32094041232e-04  8.42560495806e-04  8.53158602173e-04
       8.63890016307e-04  8.74756415013e-04  8.85759496190e-04  8.96900979089e-04
       9.08182604591e-04  9.19606135473e-04  9.31173356685e-04  9.42886075628e-04
       9.54746122438e-04  9.66755350273e-04  9.78915635598e-04  9.91228878483e-04
       1.00369700290e-03  1.01632195701e-03  1.02910571349e-03  1.04205026984e-03
       1.05515764866e-03  1.06842989802e-03  1.08186909171e-03  1.09547732966e-03
       1.10925673816e-03  1.12320947029e-03  1.13733770618e-03  1.15164365340e-03
       1.16612954729e-03  1.18079765129e-03  1.19565025733e-03  1.21068968615e-03
       1.22591828769e-03  1.24133844147e-03  1.25695255690e-03  1.27276307373e-03
       1.28877246237e-03  1.30498322434e-03  1.32139789259e-03  1.33801903194e-03
       1.35484923950e-03  1.37189114500e-03  1.38914741129e-03  1.40662073468e-03
       1.42431384543e-03  1.44222950811e-03  1.46037052209e-03  1.47873972194e-03
       1.49733997787e-03  1.51617419622e-03  1.53524531988e-03  1.55455632873e-03
       1.57411024018e-03  1.59391010956e-03  1.61395903063e-03  1.63426013609e-03
       1.65481659801e-03  1.67563162840e-03  1.69670847964e-03  1.71805044503e-03
       1.73966085929e-03  1.76154309911e-03  1.78370058362e-03  1.80613677497e-03
       1.82885517887e-03  1.85185934512e-03  1.87515286815e-03  1.89873938763e-03
       1.92262258901e-03  1.94680620407e-03  1.97129401157e-03  1.99608983777e-03
       2.02119755706e-03  2.04662109259e-03  2.07236441682e-03  2.09843155221e-03
       2.12482657181e-03  2.15155359987e-03  2.17861681256e-03  2.20602043857e-03
       2.23376875975e-03  2.26186611185e-03  2.29031688513e-03  2.31912552508e-03
       2.34829653311e-03  2.37783446726e-03  2.40774394288e-03  2.43802963338e-03
       2.46869627098e-03  2.49974864740e-03  2.53119161462e-03  2.56303008569e-03
       2.59526903542e-03  2.62791350121e-03  2.66096858384e-03  2.69443944822e-03
       2.72833132425e-03  2.76264950760e-03  2.79739936056e-03  2.83258631285e-03
       2.86821586252e-03  2.90429357676e-03  2.94082509277e-03  2.97781611869e-03
       3.01527243444e-03  3.05319989264e-03  3.09160441953e-03  3.13049201590e-03
       3.16986875802e-03  3.20974079859e-03  3.25011436768e-03  3.29099577376e-03
       3.33239140462e-03  3.37430772841e-03  3.41675129466e-03  3.45972873525e-03
       3.50324676549e-03  3.54731218516e-03  3.59193187958e-03  3.63711282066e-03
       3.68286206803e-03  3.72918677008e-03  3.77609416515e-03  3.82359158262e-03
       3.87168644406e-03  3.92038626437e-03  3.96969865302e-03  4.01963131516e-03
       4.07019205287e-03  4.12138876637e-03  4.17322945524e-03  4.22572221971e-03
       4.27887526188e-03  4.33269688701e-03  4.38719550484e-03  4.44237963090e-03
       4.49825788781e-03  4.55483900667e-03  4.61213182839e-03  4.67014530509e-03
       4.72888850150e-03  4.78837059636e-03  4.84860088386e-03  4.90958877512e-03
       4.97134379961e-03  5.03387560669e-03  5.09719396707e-03  5.16130877438e-03
       5.22623004668e-03  5.29196792806e-03  5.35853269020e-03  5.42593473398e-03
       5.49418459109e-03  5.56329292572e-03  5.63327053620e-03  5.70412835665e-03
       5.77587745877e-03  5.84852905349e-03  5.92209449277e-03  5.99658527137e-03
       6.07201302861e-03  6.14838955025e-03  6.22572677026e-03  6.30403677274e-03
       6.38333179380e-03  6.46362422343e-03  6.54492660750e-03  6.62725164967e-03
       6.71061221340e-03  6.79502132393e-03  6.88049217037e-03  6.96703810771e-03
       7.05467265893e-03  7.14340951711e-03  7.23326254755e-03  7.32424578999e-03
       7.41637346073e-03  7.50965995491e-03  7.60411984874e-03  7.69976790177e-03
       7.79661905920e-03  7.89468845421e-03  7.99399141036e-03  8.09454344393e-03
       8.19636026639e-03  8.29945778681e-03  8.40385211439e-03  8.50955956097e-03
       8.61659664354e-03  8.72498008686e-03  8.83472682608e-03  8.94585400934e-03
       9.05837900048e-03  9.17231938178e-03  9.28769295663e-03  9.40451775241e-03
       9.52281202323e-03  9.64259425279e-03  9.76388315733e-03  9.88669768847e-03
       1.00110570362e-02  1.01369806320e-02  1.02644881517e-02  1.03935995185e-02
       1.05243349064e-02  1.06567147430e-02  1.07907597130e-02  1.09264907611e-02
       1.10639290956e-02  1.12030961916e-02  1.13440137942e-02  1.14867039220e-02
       1.16311888706e-02  1.17774912162e-02  1.19256338187e-02  1.20756398258e-02
       1.22275326762e-02  1.23813361034e-02  1.25370741396e-02  1.26947711191e-02
       1.28544516824e-02  1.30161407800e-02  1.31798636761e-02  1.33456459526e-02
       1.35135135135e-02  1.36834925884e-02  1.38556097368e-02  1.40298918525e-02
       1.42063661672e-02  1.43850602556e-02  1.45660020390e-02  1.47492197898e-02
       1.49347421362e-02  1.51225980664e-02  1.53128169333e-02  1.55054284591e-02
       1.57004627396e-02  1.58979502493e-02  1.60979218461e-02  1.63004087760e-02
       1.65054426778e-02  1.67130555887e-02  1.69232799485e-02  1.71361486053e-02
       1.73516948201e-02  1.75699522725e-02  1.77909550658e-02  1.80147377319e-02
       1.82413352375e-02  1.84707829888e-02  1.87031168376e-02  1.89383730864e-02
       1.91765884945e-02  1.94178002836e-02  1.96620461435e-02  1.99093642381e-02
       2.01597932114e-02  2.04133721933e-02  2.06701408063e-02  2.09301391707e-02
       2.11934079120e-02  2.14599881664e-02  2.17299215876e-02  2.20032503533e-02
       2.22800171716e-02  2.25602652879e-02  2.28440384916e-02  2.31313811228e-02
       2.34223380793e-02  2.37169548238e-02  2.40152773907e-02  2.43173523936e-02
       2.46232270323e-02  2.49329491003e-02  2.52465669923e-02  2.55641297118e-02
       2.58856868786e-02  2.62112887366e-02  2.65409861618e-02  2.68748306700e-02
       2.72128744253e-02  2.75551702475e-02  2.79017716212e-02  2.82527327034e-02
       2.86081083326e-02  2.89679540369e-02  2.93323260430e-02  2.97012812847e-02
       3.00748774121e-02  3.04531728002e-02  3.08362265585e-02  3.12240985400e-02
       3.16168493504e-02  3.20145403578e-02  3.24172337023e-02  3.28249923055e-02
       3.32378798805e-02  3.36559609419e-02  3.40793008157e-02  3.45079656495e-02
       3.49420224232e-02  3.53815389590e-02  3.58265839322e-02  3.62772268821e-02
       3.67335382224e-02  3.71955892529e-02  3.76634521698e-02  3.81372000778e-02
       3.86169070009e-02  3.91026478942e-02  3.95944986559e-02  4.00925361385e-02
       4.05968381614e-02  4.11074835230e-02  4.16245520124e-02  4.21481244228e-02
       4.26782825634e-02  4.32151092724e-02  4.37586884302e-02  4.43091049721e-02
       4.48664449018e-02  4.54307953048e-02  4.60022443620e-02  4.65808813635e-02
       4.71667967225e-02  4.77600819894e-02  4.83608298662e-02  4.89691342212e-02
       4.95850901030e-02  5.02087937560e-02  5.08403426351e-02  5.14798354213e-02
       5.21273720364e-02  5.27830536595e-02  5.34469827422e-02  5.41192630246e-02
       5.47999995520e-02  5.54892986907e-02  5.61872681454e-02  5.68940169749e-02
       5.76096556104e-02  5.83342958718e-02  5.90680509855e-02  5.98110356025e-02
       6.05633658154e-02  6.13251591774e-02  6.20965347204e-02  6.28776129732e-02
       6.36685159810e-02  6.44693673239e-02  6.52802921366e-02  6.61014171278e-02
       6.69328705999e-02  6.77747824693e-02  6.86272842862e-02  6.94905092560e-02
       7.03645922592e-02  7.12496698731e-02  7.21458803929e-02  7.30533638533e-02
       7.39722620504e-02  7.49027185639e-02  7.58448787796e-02  7.67988899120e-02
       7.77649010271e-02  7.87430630662e-02  7.97335288692e-02  8.07364531982e-02
       8.17519927623e-02  8.27803062416e-02  8.38215543122e-02  8.48758996712e-02
       8.59435070622e-02  8.70245433010e-02  8.81191773018e-02  8.92275801032e-02
       9.03499248957e-02  9.14863870477e-02  9.26371441338e-02  9.38023759621e-02
       9.49822646026e-02  9.61769944151e-02  9.73867520787e-02  9.86117266204e-02
       9.98521094450e-02  1.01108094365e-01  1.02379877630e-01  1.03667657960e-01
       1.04971636572e-01  1.06292017215e-01  1.07629006203e-01  1.08982812442e-01
       1.10353647467e-01  1.11741725474e-01  1.13147263353e-01  1.14570480722e-01
       1.16011599962e-01  1.17470846250e-01  1.18948447597e-01  1.20444634881e-01
       1.21959641884e-01  1.23493705330e-01  1.25047064918e-01  1.26619963364e-01
       1.28212646437e-01  1.29825362997e-01  1.31458365035e-01  1.33111907709e-01
       1.34786249389e-01  1.36481651696e-01  1.38198379538e-01  1.39936701158e-01
       1.41696888172e-01  1.43479215613e-01  1.45283961974e-01  1.47111409249e-01
       1.48961842982e-01  1.50835552305e-01  1.52732829990e-01  1.54653972491e-01
       1.56599279990e-01  1.58569056444e-01  1.60563609636e-01  1.62583251219e-01
       1.64628296766e-01  1.66699065819e-01  1.68795881941e-01  1.70919072762e-01
       1.73068970036e-01  1.75245909689e-01  1.77450231871e-01  1.79682281014e-01
       1.81942405878e-01  1.84230959614e-01  1.86548299812e-01  1.88894788561e-01
       1.91270792505e-01  1.93676682900e-01  1.96112835670e-01  1.98579631470e-01
       2.01077455742e-01  2.03606698774e-01  2.06167755768e-01  2.08761026894e-01
       2.11386917354e-01  2.14045837450e-01  2.16738202644e-01  2.19464433623e-01
       2.22224956366e-01  2.25020202211e-01  2.27850607920e-01  2.30716615750e-01
       2.33618673521e-01  2.36557234685e-01  2.39532758398e-01  2.42545709592e-01
       2.45596559047e-01  2.48685783463e-01  2.51813865539e-01  2.54981294044e-01
       2.58188563895e-01  2.61436176234e-01  2.64724638508e-01  2.68054464545e-01
       2.71426174638e-01  2.74840295622e-01  2.78297360962e-01  2.81797910831e-01
       2.85342492196e-01  2.88931658907e-01  2.92565971777e-01  2.96245998676e-01
       2.99972314614e-01  3.03745501837e-01  3.07566149913e-01  3.11434855825e-01
       3.15352224067e-01  3.19318866735e-01  3.23335403627e-01  3.27402462333e-01
       3.31520678339e-01  3.35690695127e-01  3.39913164268e-01  3.44188745533e-01
       3.48518106989e-01  3.52901925109e-01  3.57340884872e-01  3.61835679876e-01
       3.66387012441e-01  3.70995593722e-01  3.75662143820e-01  3.80387391892e-01
       3.85172076267e-01  3.90016944563e-01  3.94922753800e-01  3.99890270521e-01
       4.04920270911e-01  4.10013540916e-01  4.15170876372e-01  4.20393083121e-01
       4.25680977145e-01  4.31035384688e-01  4.36457142387e-01  4.41947097402e-01
       4.47506107550e-01  4.53135041438e-01  4.58834778598e-01  4.64606209626e-01
       4.70450236319e-01  4.76367771819e-01  4.82359740752e-01  4.88427079376e-01
       4.94570735725e-01  5.00791669758e-01  5.07090853508e-01  5.13469271236e-01
       5.19927919582e-01  5.26467807723e-01  5.33089957530e-01  5.39795403727e-01
       5.46585194055e-01  5.53460389431e-01  5.60422064119e-01  5.67471305895e-01
       5.74609216217e-01  5.81836910398e-01  5.89155517780e-01  5.96566181910e-01
       6.04070060720e-01  6.11668326706e-01  6.19362167113e-01  6.27152784118e-01
       6.35041395021e-01  6.43029232435e-01  6.51117544474e-01  6.59307594955e-01
       6.67600663588e-01  6.75998046184e-01  6.84501054849e-01  6.93111018197e-01
       7.01829281552e-01  7.10657207160e-01  7.19596174402e-01  7.28647580010e-01
       7.37812838286e-01  7.47093381318e-01  7.56490659211e-01  7.66006140309e-01
       7.75641311425e-01  7.85397678074e-01  7.95276764707e-01  8.05280114954e-01
       8.15409291856e-01  8.25665878120e-01  8.36051476356e-01  8.46567709337e-01
       8.57216220245e-01  8.67998672931e-01  8.78916752176e-01  8.89972163951e-01
       9.01166635688e-01  9.12501916545e-01  9.23979777683e-01  9.35602012541e-01
       9.47370437117e-01  9.59286890252e-01  9.71353233914e-01  9.83571353496e-01
       9.95943158103e-01  1.00847058085e+00  1.02115557919e+00  1.03400013515e+00
       1.04700625575e+00  1.06017597320e+00  1.07351134530e+00  1.08701445574e+00
       1.10068741439e+00  1.11453235769e+00  1.12855144895e+00  1.14274687866e+00
       1.15712086489e+00  1.17167565362e+00  1.18641351905e+00  1.20133676401e+00
       1.21644772028e+00  1.23174874898e+00  1.24724224093e+00  1.26293061701e+00
       1.27881632858e+00  1.29490185780e+00  1.31118971807e+00  1.32768245440e+00
       1.34438264381e+00  1.36129289575e+00  1.37841585247e+00  1.39575418947e+00
       1.41331061591e+00  1.43108787500e+00  1.44908874449e+00  1.46731603704e+00
       1.48577260070e+00  1.50446131936e+00  1.52338511316e+00  1.54254693899e+00
       1.56194979091e+00  1.58159670066e+00  1.60149073812e+00  1.62163501176e+00
       1.64203266917e+00  1.66268689753e+00  1.68360092410e+00  1.70477801673e+00
       1.72622148441e+00  1.74793467770e+00  1.76992098934e+00  1.79218385473e+00
       1.81472675250e+00  1.83755320501e+00  1.86066677896e+00  1.88407108587e+00
       1.90776978272e+00  1.93176657249e+00  1.95606520471e+00  1.98066947609e+00
       2.00558323112e+00  2.03081036260e+00  2.05635481233e+00  2.08222057169e+00
       2.10841168225e+00  2.13493223642e+00  2.16178637810e+00  2.18897830330e+00
       2.21651226081e+00  2.24439255287e+00  2.27262353584e+00  2.30120962085e+00
       2.33015527455e+00  2.35946501976e+00  2.38914343617e+00  2.41919516110e+00
       2.44962489020e+00  2.48043737818e+00  2.51163743954e+00  2.54322994936e+00
       2.57521984404e+00  2.60761212205e+00  2.64041184476e+00  2.67362413720e+00
       2.70725418885e+00  2.74130725447e+00  2.77578865493e+00  2.81070377801e+00
       2.84605807928e+00  2.88185708291e+00  2.91810638258e+00  2.95481164230e+00
       2.99197859735e+00  3.02961305515e+00  3.06772089615e+00  3.10630807478e+00
       3.14538062037e+00  3.18494463808e+00  3.22500630987e+00  3.26557189546e+00
       3.30664773330e+00  3.34824024158e+00  3.39035591920e+00  3.43300134684e+00
       3.47618318792e+00  3.51990818969e+00  3.56418318428e+00  3.60901508975e+00
       3.65441091116e+00  3.70037774172e+00  3.74692276383e+00  3.79405325024e+00
       3.84177656519e+00  3.89010016554e+00  3.93903160196e+00  3.98857852009e+00
       4.03874866172e+00  4.08954986604e+00  4.14099007086e+00  4.19307731379e+00
       4.24581973359e+00  4.29922557136e+00  4.35330317187e+00  4.40806098486e+00
       4.46350756635e+00  4.51965157997e+00  4.57650179835e+00  4.63406710445e+00
       4.69235649296e+00  4.75137907171e+00  4.81114406312e+00  4.87166080557e+00
       4.93293875494e+00  4.99498748602e+00  5.05781669406e+00  5.12143619625e+00
       5.18585593326e+00  5.25108597081e+00  5.31713650123e+00  5.38401784505e+00
       5.45174045260e+00  5.52031490570e+00  5.58975191923e+00  5.66006234287e+00
       5.73125716277e+00  5.80334750326e+00  5.87634462860e+00  5.95025994475e+00
       6.02510500112e+00  6.10089149240e+00  6.17763126039e+00  6.25533629584e+00
       6.33401874030e+00  6.41369088809e+00  6.49436518812e+00  6.57605424592e+00
       6.65877082558e+00  6.74252785173e+00  6.82733841158e+00  6.91321575694e+00
       7.00017330633e+00  7.08822464704e+00  7.17738353727e+00  7.26766390828e+00
       7.35907986657e+00  7.45164569605e+00  7.54537586034e+00  7.64028500495e+00
       7.73638795964e+00  7.83369974069e+00  7.93223555327e+00  8.03201079378e+00
       8.13304105233e+00  8.23534211508e+00  8.33892996680e+00  8.44382079328e+00
       8.55003098395e+00  8.65757713435e+00  8.76647604880e+00  8.87674474296e+00
       8.98840044655e+00  9.10146060599e+00  9.21594288717e+00  9.33186517818e+00
       9.44924559211e+00  9.56810246988e+00  9.68845438314e+00  9.81032013710e+00
       9.93371877354e+00  1.00586695738e+01  1.01851920615e+01  1.03133060063e+01
       1.04430314262e+01  1.05743885909e+01  1.07073980253e+01  1.08420805125e+01
       1.09784570969e+01  1.11165490874e+01  1.12563780614e+01  1.13979658674e+01
       1.15413346287e+01  1.16865067471e+01  1.18335049059e+01  1.19823520739e+01
       1.21330715088e+01  1.22856867608e+01  1.24402216764e+01  1.25967004019e+01
       1.27551473875e+01  1.29155873908e+01  1.30780454809e+01  1.32425470422e+01
       1.34091177784e+01  1.35777837166e+01  1.37485712111e+01  1.39215069479e+01
       1.40966179484e+01  1.42739315741e+01  1.44534755307e+01  1.46352778723e+01
       1.48193670058e+01  1.50057716955e+01  1.51945210676e+01  1.53856446146e+01
       1.55791721998e+01  1.57751340623e+01  1.59735608217e+01  1.61744834824e+01
       1.63779334391e+01  1.65839424812e+01  1.67925427980e+01  1.70037669839e+01
       1.72176480429e+01  1.74342193944e+01  1.76535148782e+01  1.78755687597e+01
       1.81004157351e+01  1.83280909372e+01  1.85586299409e+01  1.87920687683e+01
       1.90284438947e+01  1.92677922541e+01  1.95101512452e+01  1.97555587372e+01
       2.00040530755e+01  2.02556730877e+01  2.05104580900e+01  2.07684478932e+01
       2.10296828086e+01  2.12942036547e+01  2.15620517635e+01  2.18332689867e+01
       2.21078977026e+01  2.23859808226e+01  2.26675617975e+01  2.29526846251e+01
       2.32413938564e+01  2.35337346028e+01  2.38297525431e+01  2.41294939307e+01
       2.44330056008e+01  2.47403349777e+01  2.50515300823e+01  2.53666395395e+01
       2.56857125857e+01  2.60087990767e+01  2.63359494955e+01  2.66672149600e+01
       2.70026472311e+01  2.73422987208e+01  2.76862225003e+01  2.80344723083e+01
       2.83871025597e+01  2.87441683537e+01  2.91057254824e+01  2.94718304399e+01
       2.98425404309e+01  3.02179133796e+01  3.05980079387e+01  3.09828834988e+01
       3.13726001974e+01  3.17672189287e+01  3.21668013526e+01  3.25714099046e+01
       3.29811078057e+01  3.33959590720e+01  3.38160285249e+01  3.42413818010e+01
       3.46720853626e+01  3.51082065082e+01  3.55498133824e+01  3.59969749873e+01
       3.64497611928e+01  3.69082427476e+01  3.73724912905e+01  3.78425793612e+01
       3.83185804118e+01  3.88005688186e+01  3.92886198933e+01  3.97828098947e+01
       4.02832160411e+01  4.07899165220e+01  4.13029905103e+01  4.18225181749e+01
       4.23485806931e+01  4.28812602631e+01  4.34206401174e+01  4.39668045349e+01
       4.45198388552e+01  4.50798294908e+01  4.56468639415e+01  4.62210308076e+01
       4.68024198038e+01  4.73911217733e+01  4.79872287019e+01  4.85908337327e+01
       4.92020311802e+01  4.98209165451e+01  5.04475865295e+01  5.10821390520e+01
       5.17246732627e+01  5.23752895588e+01  5.30340896004e+01  5.37011763265e+01
       5.43766539706e+01  5.50606280775e+01  5.57532055196e+01  5.64544945134e+01
       5.71646046369e+01  5.78836468462e+01  5.86117334930e+01  5.93489783425e+01
       6.00954965905e+01  6.08514048822e+01  6.16168213297e+01  6.23918655309e+01
       6.31766585880e+01  6.39713231265e+01  6.47759833145e+01  6.55907648816e+01
       6.64157951392e+01  6.72512029999e+01  6.80971189979e+01  6.89536753092e+01
       6.98210057726e+01  7.06992459103e+01  7.15885329489e+01  7.24890058415e+01
       7.34008052887e+01  7.43240737611e+01  7.52589555212e+01  7.62055966462e+01
       7.71641450507e+01  7.81347505099e+01  7.91175646828e+01  8.01127411362e+01
       8.11204353684e+01  8.21408048336e+01  8.31740089667e+01  8.42202092080e+01
       8.52795690282e+01  8.63522539547e+01  8.74384315965e+01  8.85382716711e+01
       8.96519460308e+01  9.07796286895e+01  9.19214958498e+01  9.30777259309e+01
       9.42484995960e+01  9.54339997810e+01  9.66344117225e+01  9.78499229876e+01
       9.90807235021e+01
    </PP_R>
    <PP_RAB type="real" size="1273" columns="4">
       1.54034115803e-07  1.55971626464e-07  1.57933508010e-07  1.59920066987e-07
       1.61931613800e-07  1.63968462757e-07  1.66030932120e-07  1.68119344154e-07
       1.70234025177e-07  1.72375305613e-07  1.74543520042e-07  1.76739007250e-07
       1.78962110288e-07  1.81213176520e-07  1.83492557680e-07  1.85800609925e-07
       1.88137693893e-07  1.90504174758e-07  1.92900422289e-07  1.95326810903e-07
       1.97783719728e-07  2.00271532662e-07  2.02790638431e-07  2.05341430649e-07
       2.07924307884e-07  2.10539673715e-07  2.13187936798e-07  2.15869510930e-07
       2.18584815112e-07  2.21334273617e-07  2.24118316052e-07  2.26937377430e-07
       2.29791898234e-07  2.32682324491e-07  2.35609107834e-07  2.38572705579e-07
       2.41573580795e-07  2.44612202375e-07  2.47689045109e-07  2.50804589760e-07
       2.53959323138e-07  2.57153738177e-07  2.60388334012e-07  2.63663616053e-07
       2.66980096070e-07  2.70338292271e-07  2.73738729380e-07  2.77181938722e-07
       2.80668458306e-07  2.84198832908e-07  2.87773614156e-07  2.91393360616e-07
       2.95058637882e-07  2.98770018660e-07  3.02528082862e-07  3.06333417692e-07
       3.10186617741e-07  3.14088285081e-07  3.18039029355e-07  3.22039467873e-07
       3.26090225714e-07  3.30191935816e-07  3.34345239080e-07  3.38550784468e-07
       3.42809229104e-07  3.47121238380e-07  3.51487486056e-07  3.55908654366e-07
       3.60385434128e-07  3.64918524847e-07  3.69508634828e-07  3.74156481285e-07
       3.78862790454e-07  3.83628297704e-07  3.88453747656e-07  3.93339894297e-07
       3.98287501096e-07  4.03297341128e-07  4.08370197190e-07  4.13506861926e-07
       4.18708137950e-07  4.23974837973e-07  4.29307784927e-07  4.34707812096e-07
       4.40175763245e-07  4.45712492752e-07  4.51318865743e-07  4.56995758225e-07
       4.62744057224e-07  4.68564660924e-07  4.74458478805e-07  4.80426431789e-07
       4.86469452380e-07  4.92588484813e-07  4.98784485198e-07  5.05058421675e-07
       5.11411274557e-07  5.17844036491e-07  5.24357712610e-07  5.30953320688e-07
       5.37631891302e-07  5.44394467994e-07  5.51242107428e-07  5.58175879564e-07