<UPF version="2.0.1">
  <PP_INFO>
Converted from CP2K GTH format
       <PP_INPUTFILE>
W 
    4    6    4    0
    0.54000000000000       2   13.41481123000000   -2.21345603000000
       3
    0.39702790000000       3   -4.14121089000000    3.83542346000000    2.23317927000000
                                                   -1.31924404000000   -5.76604408000000
                                                                        4.57665561000000
    0.35353069000000       3   -7.45623626000000    8.11232637000000    0.00000000000000
                                                   -9.59863401000000    0.00000000000000
                                                                        0.00000000000000
    0.41210703000000       2   -0.95466075000000   -1.06744623000000
                                                    1.21037026000000
                               -7.45623626000000    8.11232637000000    0.00000000000000
                                                   -0.33202370000000    0.55251937000000
                                                                       -0.39267845000000
                               -0.95466075000000   -1.06744623000000
                                                   -0.01495438000000
       </PP_INPUTFILE>
  </PP_INFO>
  <PP_HEADER
    generated="Generated in analytical, separable form"
    author="Goedecker/Hartwigsen/Hutter/Teter"
    date="Phys.Rev.B58, 3641 (1998); B54, 1703 (1996)"
    comment="This file generated by CP2K ATOM code"
    element="W"
    pseudo_type="NC"
    relativistic="full"
    is_ultrasoft="F"
    is_paw="F"
    is_coulomb="F"
    has_so="T"
    has_wfc="T"
    has_gipaw="F"
    paw_as_gipaw="F"
    core_correction="F"
    functional="PBE"
    z_valence="14.0000000000"
    total_psenergy="-135.6538400000"
    wfc_cutoff="0.0000000000"
    rho_cutoff="0.0000000000"
    l_max="2"
    l_max_rho="0"
    l_local="-3"
    mesh_size="400"
    number_of_wfc="6"
    number_of_proj="13"/>
  <PP_MESH dx="1.0000000000000000e+00" mesh="400" xmin="1.0000000000000000e+00" rmax="3.7538232999999998e+01" zmesh="7.4000000000000000e+01">
    <PP_R type="real" size="400" columns="4">
       7.22853190584e-12  2.31286432529e-10  1.75607452138e-09  7.39856944537e-09
       2.25727037849e-08  5.61500555707e-08  1.21316292751e-07  2.36422320493e-07
       4.25829084447e-07  7.20744989012e-07  1.16005490915e-06  1.79113976717e-06
       2.67068567771e-06  3.86548166306e-06  5.45320496294e-06  7.52319298002e-06
       1.01772009232e-05  1.35301442221e-05  1.77108248203e-05  2.28626404723e-05
       2.91442761927e-05  3.67303770427e-05  4.58122014526e-05  5.65982543296e-05
       6.93148992117e-05  8.42069487776e-05  1.01538233049e-04  1.21592144665e-04
       1.44672160631e-04  1.71102340018e-04  2.01227797072e-04  2.35415149303e-04
       2.74052940106e-04  3.17552035547e-04  3.66345994967e-04  4.20891415136e-04
       4.81668247687e-04  5.49180089643e-04  6.23954446896e-04  7.06542970501e-04
       7.97521665771e-04  8.97491074118e-04  1.00707642770e-03  1.12692777695e-03
       1.25772009112e-03  1.40015333198e-03  1.55495250098e-03  1.72286765998e-03
       1.90467392601e-03  2.10117144037e-03  2.31318531236e-03  2.54156553820e-03
       2.78718689553e-03  3.05094881400e-03  3.33377522260e-03  3.63661437407e-03
       3.96043864728e-03  4.30624432799e-03  4.67505136882e-03  5.06790312903e-03
       5.48586609482e-03  5.93002958103e-03  6.40150541486e-03  6.90142760243e-03
       7.43095197903e-03  7.99125584389e-03  8.58353758021e-03  9.20901626139e-03
       9.86893124424e-03  1.05645417501e-02  1.12971264349e-02  1.20679829481e-02
       1.28784274833e-02  1.37297943191e-02  1.46234353530e-02  1.55607196278e-02
       1.65430328521e-02  1.75717769162e-02  1.86483694024e-02  1.97742430934e-02
       2.09508454764e-02  2.21796382464e-02  2.34620968078e-02  2.47997097761e-02
       2.61939784799e-02  2.76464164637e-02  2.91585489930e-02  3.07319125619e-02
       3.23680544040e-02  3.40685320070e-02  3.58349126321e-02  3.76687728386e-02
       3.95716980139e-02  4.15452819102e-02  4.35911261879e-02  4.57108399664e-02
       4.79060393828e-02  5.01783471587e-02  5.25293921763e-02  5.49608090629e-02
       5.74742377858e-02  6.00713232566e-02  6.27537149461e-02  6.55230665091e-02
       6.83810354214e-02  7.13292826268e-02  7.43694721957e-02  7.75032709962e-02
       8.07323483757e-02  8.40583758557e-02  8.74830268379e-02  9.10079763235e-02
       9.46349006441e-02  9.83654772053e-02  1.02201384244e-01  1.06144300596e-01
       1.10195905480e-01  1.14357878290e-01  1.18631898405e-01  1.23019645005e-01
       1.27522796911e-01  1.32143032424e-01  1.36882029186e-01  1.41741464052e-01
       1.46723012974e-01  1.51828350893e-01  1.57059151655e-01  1.62417087924e-01
       1.67903831121e-01  1.73521051369e-01  1.79270417446e-01  1.85153596759e-01
       1.91172255326e-01  1.97328057764e-01  2.03622667296e-01  2.10057745770e-01
       2.16634953680e-01  2.23355950208e-01  2.30222393274e-01  2.37235939592e-01
       2.44398244747e-01  2.51710963269e-01  2.59175748728e-01  2.66794253839e-01
       2.74568130569e-01  2.82499030260e-01  2.90588603761e-01  2.98838501574e-01
       3.07250373996e-01  3.15825871286e-01  3.24566643833e-01  3.33474342335e-01
       3.42550617983e-01  3.51797122663e-01  3.61215509160e-01  3.70807431370e-01
       3.80574544524e-01  3.90518505419e-01  4.00640972657e-01  4.10943606896e-01
       4.21428071099e-01  4.32096030808e-01  4.42949154406e-01  4.53989113405e-01
       4.65217582730e-01  4.76636241017e-01  4.88246770917e-01  5.00050859406e-01
       5.12050198107e-01  5.24246483615e-01  5.36641417835e-01  5.49236708323e-01
       5.62034068637e-01  5.75035218695e-01  5.88241885146e-01  6.01655801736e-01
       6.15278709697e-01  6.29112358134e-01  6.43158504427e-01  6.57418914630e-01
       6.71895363892e-01  6.86589636877e-01  7.01503528194e-01  7.16638842840e-01
       7.31997396644e-01  7.47581016724e-01  7.63391541957e-01  7.79430823446e-01
       7.95700725012e-01  8.12203123679e-01  8.28939910182e-01  8.45912989478e-01
       8.63124281265e-01  8.80575720517e-01  8.98269258026e-01  9.16206860955e-01
       9.34390513401e-01  9.52822216969e-01  9.71503991362e-01  9.90437874975e-01
       1.00962592551e+00  1.02907022059e+00  1.04877285840e+00  1.06873595834e+00
       1.08896166167e+00  1.10945213221e+00  1.13020955700e+00  1.15123614703e+00
       1.17253413794e+00  1.19410579078e+00  1.21595339271e+00  1.23807925785e+00
       1.26048572797e+00  1.28317517335e+00  1.30614999360e+00  1.32941261848e+00
       1.35296550876e+00  1.37681115710e+00  1.40095208896e+00  1.42539086350e+00
       1.45013007454e+00  1.47517235154e+00  1.50052036053e+00  1.52617680519e+00
       1.55214442785e+00  1.57842601057e+00  1.60502437624e+00  1.63194238966e+00
       1.65918295875e+00  1.68674903569e+00  1.71464361814e+00  1.74286975047e+00
       1.77143052508e+00  1.80032908367e+00  1.82956861859e+00  1.85915237427e+00
       1.88908364858e+00  1.91936579436e+00  1.95000222087e+00  1.98099639540e+00
       2.01235184480e+00  2.04407215718e+00  2.07616098357e+00  2.10862203968e+00
       2.14145910766e+00  2.17467603802e+00  2.20827675146e+00  2.24226524089e+00
       2.27664557341e+00  2.31142189244e+00  2.34659841990e+00  2.38217945835e+00
       2.41816939337e+00  2.45457269592e+00  2.49139392475e+00  2.52863772900e+00
       2.56630885075e+00  2.60441212779e+00  2.64295249638e+00  2.68193499418e+00
       2.72136476318e+00  2.76124705291e+00  2.80158722354e+00  2.84239074930e+00
       2.88366322184e+00  2.92541035387e+00  2.96763798281e+00  3.01035207467e+00
       3.05355872799e+00  3.09726417797e+00  3.14147480079e+00  3.18619711802e+00
       3.23143780123e+00  3.27720367684e+00  3.32350173102e+00  3.37033911495e+00
       3.41772315014e+00  3.46566133409e+00  3.51416134605e+00  3.56323105315e+00
       3.61287851667e+00  3.66311199862e+00  3.71393996861e+00  3.76537111099e+00
       3.81741433227e+00  3.87007876892e+00  3.92337379544e+00  3.97730903285e+00
       4.03189435749e+00  4.08713991025e+00  4.14305610626e+00  4.19965364490e+00
       4.25694352037e+00  4.31493703276e+00  4.37364579952e+00  4.43308176763e+00
       4.49325722620e+00  4.55418481982e+00  4.61587756241e+00  4.67834885190e+00
       4.74161248552e+00  4.80568267591e+00  4.87057406808e+00  4.93630175712e+00
       5.00288130699e+00  5.07032877013e+00  5.13866070824e+00  5.20789421408e+00
       5.27804693449e+00  5.34913709465e+00  5.42118352367e+00  5.49420568167e+00
       5.56822368827e+00  5.64325835285e+00  5.71933120643e+00  5.79646453548e+00
       5.87468141775e+00  5.95400576017e+00  6.03446233910e+00  6.11607684305e+00
       6.19887591802e+00  6.28288721572e+00  6.36813944483e+00  6.45466242560e+00
       6.54248714801e+00  6.63164583376e+00  6.72217200241e+00  6.81410054208e+00
       6.90746778497e+00  7.00231158817e+00  7.09867142021e+00  7.19658845383e+00
       7.29610566552e+00  7.39726794245e+00  7.50012219742e+00  7.60471749259e+00
       7.71110517277e+00  7.81933900930e+00  7.92947535534e+00  8.04157331379e+00
       8.15569491921e+00  8.27190533484e+00  8.39027306665e+00  8.51087019584e+00
       8.63377263206e+00  8.75906038931e+00  8.88681788726e+00  9.01713428073e+00
       9.15010382043e+00  9.28582624889e+00  9.42440723554e+00  9.56595885564e+00
       9.71060011879e+00  9.85845755290e+00  1.00096658511e+01  1.01643685896e+01
       1.03227190264e+01  1.04848809919e+01  1.06510298839e+01  1.08213537828e+01
       1.09960547046e+01  1.11753500125e+01  1.13594740119e+01  1.15486797575e+01
       1.17432411096e+01  1.19434550779e+01  1.21496445077e+01  1.23621611644e+01
       1.25813892956e+01  1.28077497563e+01  1.30417048124e+01  1.32837637582e+01
       1.35344895202e+01  1.37945064614e+01  1.40645096609e+01  1.43452760122e+01
       1.46376775900e+01  1.49426978619e+01  1.52614515069e+01  1.55952088472e+01
       1.59454262445e+01  1.63137843006e+01  1.67022363949e+01  1.71130711103e+01
       1.75489936059e+01  1.80132332876e+01  1.85096886807e+01  1.90431260874e+01
       1.96194579189e+01  2.02461424280e+01  2.09327744956e+01  2.16919887596e+01
       2.25408969076e+01  2.35034897804e+01  2.46149037070e+01  2.59296118995e+01
       2.75388728474e+01  2.96137651572e+01  3.25383656839e+01  3.75382328098e+01
    </PP_R>
    <PP_RAB type="real" size="400" columns="4">
       3.61412465855e-11  5.78188964494e-10  2.92648282218e-09  9.24648195069e-09
       2.25661064928e-08  4.67720198933e-08  8.66048561826e-08  1.47653397850e-07
       2.36347711306e-07  3.59951248387e-07  5.26551923849e-07  7.45052180357e-07
       1.02515805405e-06  1.37736725537e-06  1.81295628150e-06  2.34396657848e-06
       2.98318977251e-06  3.74415199212e-06  4.64109730401e-06  5.68897028740e-06
       6.90339777347e-06  8.30066977780e-06  9.89771965563e-06  1.17121035113e-05
       1.37619788945e-05  1.60660828183e-05  1.86437091343e-05  2.15146853016e-05
       2.46993485900e-05  2.82185217549e-05  3.20934882265e-05  3.63459668547e-05
       4.09980862524e-05  4.60723587821e-05  5.15916542287e-05  5.75791732062e-05
       6.40584203412e-05  7.10531772822e-05  7.85874755801e-05  8.66855694856e-05
       9.53719087129e-05  1.04671111214e-04  1.14607936011e-04  1.25207256136e-04
       1.36494031713e-04  1.48493283248e-04  1.61230065148e-04  1.74729439530e-04
       1.89016450357e-04  2.04116097938e-04  2.20053313843e-04  2.36852936265e-04
       2.54539685870e-04  2.73138142168e-04  2.92672720446e-04  3.13167649293e-04
       3.34646948751e-04  3.57134409115e-04  3.80653570425e-04  4.05227702659e-04
       4.30879786667e-04  4.57632495857e-04  4.85508178657e-04  5.14528841780e-04
       5.44716134295e-04  5.76091332528e-04  6.08675325798e-04  6.42488603009e-04
       6.77551240098e-04  7.13882888342e-04  7.51502763545e-04  7.90429636085e-04
       8.30681821840e-04  8.72277173981e-04  9.15233075636e-04  9.59566433411e-04
       1.00529367177e-03  1.05243072828e-03  1.10099304962e-03  1.15099558855e-03
       1.20245280156e-03  1.25537864739e-03  1.30978658629e-03  1.36568958013e-03
       1.42310009316e-03  1.48203009352e-03  1.54249105553e-03  1.60449396261e-03
       1.66804931085e-03  1.73316711327e-03  1.79985690471e-03  1.86812774726e-03
       1.93798823631e-03  2.00944650717e-03  2.08251024216e-03  2.15718667826e-03
       2.23348261517e-03  2.31140442393e-03  2.39095805584e-03  2.47214905185e-03
       2.55498255237e-03  2.63946330735e-03  2.72559568672e-03  2.81338369116e-03
       2.90283096313e-03  2.99394079816e-03  3.08671615638e-03  3.18115967427e-03
       3.27727367655e-03  3.37506018837e-03  3.47452094746e-03  3.57565741662e-03
       3.67847079612e-03  3.78296203635e-03  3.88913185047e-03  3.99698072711e-03
       4.10650894313e-03  4.21771657643e-03  4.33060351870e-03  4.44516948823e-03
       4.56141404268e-03  4.67933659180e-03  4.79893641013e-03  4.92021264962e-03
       5.04316435224e-03  5.16779046239e-03  5.29408983939e-03  5.42206126976e-03
       5.55170347939e-03  5.68301514572e-03  5.81599490964e-03  5.95064138743e-03
       6.08695318243e-03  6.22492889668e-03  6.36456714239e-03  6.50586655324e-03
       6.64882579562e-03  6.79344357961e-03  6.93971866996e-03  7.08764989676e-03
       7.23723616609e-03  7.38847647051e-03  7.54136989931e-03  7.69591564869e-03
       7.85211303184e-03  8.00996148875e-03  8.16946059599e-03  8.33061007627e-03
       8.49340980796e-03  8.65785983438e-03  8.82396037303e-03  8.99171182463e-03
       9.16111478213e-03  9.33217003952e-03  9.50487860054e-03  9.67924168738e-03
       9.85526074909e-03  1.00329374701e-02  1.02122737786e-02  1.03932718546e-02
       1.05759341383e-02  1.07602633380e-02  1.09462624384e-02  1.11339347085e-02
       1.13232837093e-02  1.15143133018e-02  1.17070276553e-02  1.19014312544e-02
       1.20975289074e-02  1.22953257540e-02  1.24948272730e-02  1.26960392898e-02
       1.28989679849e-02  1.31036199010e-02  1.33100019513e-02  1.35181214271e-02
       1.37279860059e-02  1.39396037594e-02  1.41529831613e-02  1.43681330957e-02
       1.45850628651e-02  1.48037821990e-02  1.50243012616e-02  1.52466306612e-02
       1.54707814582e-02  1.56967651740e-02  1.59245938001e-02  1.61542798069e-02
       1.63858361531e-02  1.66192762949e-02  1.68546141958e-02  1.70918643364e-02
       1.73310417239e-02  1.75721619032e-02  1.78152409666e-02  1.80602955647e-02
       1.83073429176e-02  1.85564008260e-02  1.88074876825e-02  1.90606224840e-02
       1.93158248431e-02  1.95731150013e-02  1.98325138416e-02  2.00940429014e-02
       2.03577243866e-02  2.06235811853e-02  2.08916368820e-02  2.11619157732e-02
       2.14344428818e-02  2.17092439735e-02  2.19863455727e-02  2.22657749796e-02
       2.25475602874e-02  2.28317304000e-02  2.31183150508e-02  2.34073448215e-02
       2.36988511620e-02  2.39928664106e-02  2.42894238152e-02  2.45885575550e-02
       2.48903027631e-02  2.51946955496e-02  2.55017730261e-02  2.58115733300e-02
       2.61241356509e-02  2.64395002570e-02  2.67577085230e-02  2.70788029585e-02
       2.74028272380e-02  2.77298262314e-02  2.80598460359e-02  2.83929340093e-02
       2.87291388041e-02  2.90685104029e-02  2.94111001556e-02  2.97569608172e-02
       3.01061465878e-02  3.04587131537e-02  3.08147177300e-02  3.11742191050e-02
       3.15372776865e-02  3.19039555494e-02  3.22743164852e-02  3.26484260542e-02
       3.30263516388e-02  3.34081624992e-02  3.37939298318e-02  3.41837268292e-02
       3.45776287430e-02  3.49757129491e-02  3.53780590159e-02  3.57847487745e-02
       3.61958663928e-02  3.66114984521e-02  3.70317340266e-02  3.74566647672e-02
       3.78863849879e-02  3.83209917562e-02  3.87605849875e-02  3.92052675434e-02
       3.96551453346e-02  4.01103274272e-02  4.05709261555e-02  4.10370572379e-02
       4.15088398991e-02  4.19863969978e-02  4.24698551591e-02  4.29593449144e-02
       4.34550008465e-02  4.39569617420e-02  4.44653707506e-02  4.49803755518e-02
       4.55021285297e-02  4.60307869559e-02  4.65665131809e-02  4.71094748354e-02
       4.76598450408e-02  4.82178026302e-02  4.87835323804e-02  4.93572252552e-02
       4.99390786613e-02  5.05292967168e-02  5.11280905335e-02  5.17356785135e-02
       5.23522866620e-02  5.29781489152e-02  5.36135074867e-02  5.42586132312e-02
       5.49137260290e-02  5.55791151901e-02  5.62550598814e-02  5.69418495762e-02
       5.76397845305e-02  5.83491762843e-02  5.90703481923e-02  5.98036359845e-02
       6.05493883598e-02  6.13079676134e-02  6.20797503018e-02  6.28651279469e-02
       6.36645077828e-02  6.44783135474e-02  6.53069863229e-02  6.61509854281e-02
       6.70107893669e-02  6.78868968360e-02  6.87798277976e-02  6.96901246213e-02
       7.06183532999e-02  7.15651047463e-02  7.25309961761e-02  7.35166725840e-02
       7.45228083204e-02  7.55501087773e-02  7.65993121914e-02  7.76711915748e-02
       7.87665567834e-02  7.98862567351e-02  8.10311817903e-02  8.22022663084e-02
       8.34004913967e-02  8.46268878675e-02  8.58825394232e-02  8.71685860891e-02
       8.84862279179e-02  8.98367289899e-02  9.12214217379e-02  9.26417116279e-02
       9.40990822294e-02  9.55951007141e-02  9.71314238267e-02  9.87098043742e-02
       1.00332098288e-01  1.02000272319e-01  1.03716412432e-01  1.05482732973e-01
       1.07301586698e-01  1.09175475763e-01  1.11107063760e-01  1.13099188958e-01
       1.15154878853e-01  1.17277366205e-01  1.19470106734e-01  1.21736798670e-01
       1.24081404414e-01  1.26508174543e-01  1.29021674500e-01  1.31626814292e-01
       1.34328881621e-01  1.37133578915e-01  1.40047064795e-01  1.43076000627e-01
       1.46227602890e-01  1.49509702229e-01  1.52930810211e-01  1.56500194981e-01
       1.60227967241e-01  1.64125178212e-01  1.68203931607e-01  1.72477511980e-01
       1.76960532329e-01  1.81669104410e-01  1.86621035940e-01  1.91836059782e-01
       1.97336101321e-01  2.03145591685e-01  2.09291836235e-01  2.15805450050e-01
       2.22720875073e-01  2.30076997349e-01  2.37917887698e-01  2.46293695651e-01
       2.55261734930e-01  2.64887810143e-01  2.75247849657e-01  2.86429930338e-01
       2.98536808495e-01  3.11689111057e-01  3.26029397081e-01  3.41727379682e-01
       3.58986714553e-01  3.78053932212e-01  3.99230347686e-01  4.22888173580e-01
       4.49492675599e-01  4.79633190252e-01  5.14067435763e-01  5.53786274450e-01
       6.00110855785e-01  6.54842747474e-01  7.20504143675e-01  8.00738214302e-01
       9.01009712949e-01  1.02990611082e+00  1.20173985634e+00  1.44227336796e+00
       1.80303143236e+00  2.40423865599e+00  3.60656595712e+00  7.21335303926e+00
    </PP_RAB>
  </PP_MESH>
  <PP_LOCAL type="real" size="400" columns="4">
    -1.45421695816e+01 -1.45421695816e+01 -1.45421695816e+01 -1.45421695816e+01
    -1.45421695816e+01 -1.45421695816e+01 -1.45421695816e+01 -1.45421695816e+01
    -1.45421695816e+01 -1.45421695817e+01 -1.45421695817e+01 -1.45421695818e+01
    -1.45421695819e+01 -1.45421695822e+01 -1.45421695828e+01 -1.45421695838e+01
    -1.45421695855e+01 -1.45421695885e+01 -1.45421695934e+01 -1.45421696013e+01
    -1.45421696135e+01 -1.45421696323e+01 -1.45421696604e+01 -1.45421697019e+01
    -1.45421697620e+01 -1.45421698478e+01 -1.45421699687e+01 -1.45421701366e+01
    -1.45421703673e+01 -1.45421706806e+01 -1.45421711017e+01 -1.45421716621e+01
    -1.45421724010e+01 -1.45421733670e+01 -1.45421746197e+01 -1.45421762317e+01
    -1.45421782909e+01 -1.45421809034e+01 -1.45421841963e+01 -1.45421883213e+01
    -1.45421934581e+01 -1.45421998190e+01 -1.45422076539e+01 -1.45422172550e+01
    -1.45422289632e+01 -1.45422431743e+01 -1.45422603464e+01 -1.45422810077e+01
    -1.45423057649e+01 -1.45423353131e+01 -1.45423704457e+01 -1.45424120658e+01
    -1.45424611982e+01 -1.45425190025e+01 -1.45425867876e+01 -1.45426660266e+01
    -1.45427583733e+01 -1.45428656801e+01 -1.45429900164e+01 -1.45431336893e+01
    -1.45432992647e+01 -1.45434895904e+01 -1.45437078203e+01 -1.45439574407e+01
    -1.45442422968e+01 -1.45445666226e+01 -1.45449350708e+01 -1.45453527451e+01
    -1.45458252345e+01 -1.45463586482e+01 -1.45469596536e+01 -1.45476355149e+01
    -1.45483941345e+01 -1.45492440951e+01 -1.45501947048e+01 -1.45512560432e+01
    -1.45524390096e+01 -1.45537553731e+01 -1.45552178243e+01 -1.45568400290e+01
    -1.45586366836e+01 -1.45606235724e+01 -1.45628176263e+01 -1.45652369829e+01
    -1.45679010494e+01 -1.45708305654e+01 -1.45740476682e+01 -1.45775759592e+01
    -1.45814405709e+01 -1.45856682361e+01 -1.45902873567e+01 -1.45953280743e+01
    -1.46008223408e+01 -1.46068039895e+01 -1.46133088062e+01 -1.46203746006e+01
    -1.46280412765e+01 -1.46363509016e+01 -1.46453477771e+01 -1.46550785038e+01
    -1.46655920487e+01 -1.46769398074e+01 -1.46891756648e+01 -1.47023560523e+01
    -1.47165400004e+01 -1.47317891878e+01 -1.47481679851e+01 -1.47657434921e+01
    -1.47845855691e+01 -1.48047668607e+01 -1.48263628111e+01 -1.48494516704e+01
    -1.48741144911e+01 -1.49004351124e+01 -1.49285001338e+01 -1.49583988736e+01
    -1.49902233144e+01 -1.50240680317e+01 -1.50600301058e+01 -1.50982090148e+01
    -1.51387065085e+01 -1.51816264600e+01 -1.52270746948e+01 -1.52751587956e+01
    -1.53259878809e+01 -1.53796723564e+01 -1.54363236366e+01 -1.54960538359e+01
    -1.55589754280e+01 -1.56252008701e+01 -1.56948421931e+01 -1.57680105536e+01
    -1.58448157486e+01 -1.59253656904e+01 -1.60097658406e+01 -1.60981186027e+01
    -1.61905226722e+01 -1.62870723439e+01 -1.63878567752e+01 -1.64929592068e+01
    -1.66024561395e+01 -1.67164164691e+01 -1.68349005793e+01 -1.69579593949e+01
    -1.70856333969e+01 -1.72179516015e+01 -1.73549305078e+01 -1.74965730152e+01
    -1.76428673178e+01 -1.77937857781e+01 -1.79492837878e+01 -1.81092986221e+01
    -1.82737482929e+01 -1.84425304123e+01 -1.86155210727e+01 -1.87925737548e+01
    -1.89735182745e+01 -1.91581597796e+01 -1.93462778093e+01 -1.95376254292e+01
    -1.97319284577e+01 -1.99288847951e+01 -2.01281638750e+01 -2.03294062495e+01
    -2.05322233283e+01 -2.07361972845e+01 -2.09408811464e+01 -2.11457990892e+01
    -2.13504469445e+01 -2.15542929411e+01 -2.17567786917e+01 -2.19573204400e+01
    -2.21553105775e+01 -2.23501194423e+01 -2.25410974056e+01 -2.27275772518e+01
    -2.29088768553e+01 -2.30843021519e+01 -2.32531504021e+01 -2.34147137363e+01
    -2.35682829720e+01 -2.37131516845e+01 -2.38486205112e+01 -2.39740016643e+01
    -2.40886236189e+01 -2.41918359446e+01 -2.42830142379e+01 -2.43615651109e+01
    -2.44269311894e+01 -2.44785960646e+01 -2.45160891433e+01 -2.45389903377e+01
    -2.45469345312e+01 -2.45396157590e+01 -2.45167910391e+01 -2.44782837908e+01
    -2.44239867788e+01 -2.43538645252e+01 -2.42679551350e+01 -2.41663714843e+01
    -2.40493017306e+01 -2.39170091096e+01 -2.37698309919e+01 -2.36081771851e+01
    -2.34325274756e+01 -2.32434284172e+01 -2.30414893856e+01 -2.28273779310e+01
    -2.26018144726e+01 -2.23655663926e+01 -2.21194415983e+01 -2.18642816323e+01
    -2.16009544211e+01 -2.13303467605e+01 -2.10533566432e+01 -2.07708855388e+01
    -2.04838307386e+01 -2.01930778803e+01 -1.98994937600e+01 -1.96039195421e+01
    -1.93071644631e+01 -1.90100001202e+01 -1.87131554241e+01 -1.84173122784e+01
    -1.81231020377e+01 -1.78311027761e+01 -1.75418373835e+01 -1.72557724885e+01
    -1.69733181909e+01 -1.66948285681e+01 -1.64206029082e+01 -1.61508876050e+01
    -1.58858786420e+01 -1.56257245804e+01 -1.53705299627e+01 -1.51203590350e+01
    -1.48752396948e+01 -1.46351675679e+01 -1.44001101255e+01 -1.41700107569e+01
    -1.39447927205e+01 -1.37243629095e+01 -1.35086153730e+01 -1.32974345527e+01
    -1.30906982003e+01 -1.28882799568e+01 -1.26900515848e+01 -1.24958848547e+01
    -1.23056530951e+01 -1.21192324264e+01 -1.19365027012e+01 -1.17573481799e+01
    -1.15816579750e+01 -1.14093262959e+01 -1.12402525279e+01 -1.10743411787e+01
    -1.09115017220e+01 -1.07516483661e+01 -1.05946997722e+01 -1.04405787426e+01
    -1.02892118969e+01 -1.01405293495e+01 -9.99446439840e+00 -9.85095323337e+00
    -9.70993466786e+00 -9.57134989705e+00 -9.43514228310e+00 -9.30125716696e+00
    -9.16964170508e+00 -9.04024472903e+00 -8.91301662543e+00 -8.78790923350e+00
    -8.66487575775e+00 -8.54387069322e+00 -8.42484976115e+00 -8.30776985311e+00
    -8.19258898193e+00 -8.07926623806e+00 -7.96776175021e+00 -7.85803664949e+00
    -7.75005303613e+00 -7.64377394854e+00 -7.53916333403e+00 -7.43618602104e+00
    -7.33480769266e+00 -7.23499486116e+00 -7.13671484356e+00 -7.03993573799e+00
    -6.94462640092e+00 -6.85075642507e+00 -6.75829611814e+00 -6.66721648203e+00
    -6.57748919290e+00 -6.48908658167e+00 -6.40198161521e+00 -6.31614787809e+00
    -6.23155955477e+00 -6.14819141247e+00 -6.06601878439e+00 -5.98501755350e+00
    -5.90516413679e+00 -5.82643546990e+00 -5.74880899225e+00 -5.67226263257e+00
    -5.59677479473e+00 -5.52232434412e+00 -5.44889059421e+00 -5.37645329359e+00
    -5.30499261327e+00 -5.23448913433e+00 -5.16492383586e+00 -5.09627808319e+00
    -5.02853361638e+00 -4.96167253903e+00 -4.89567730726e+00 -4.83053071896e+00
    -4.76621590328e+00 -4.70271631031e+00 -4.64001570091e+00 -4.57809813685e+00
    -4.51694797094e+00 -4.45654983746e+00 -4.39688864269e+00 -4.33794955550e+00
    -4.27971799815e+00 -4.22217963714e+00 -4.16532037412e+00 -4.10912633694e+00
    -4.05358387062e+00 -3.99867952853e+00 -3.94440006341e+00 -3.89073241851e+00
    -3.83766371865e+00 -3.78518126122e+00 -3.73327250716e+00 -3.68192507181e+00
    -3.63112671564e+00 -3.58086533487e+00 -3.53112895182e+00 -3.48190570519e+00
    -3.43318383993e+00 -3.38495169693e+00 -3.33719770234e+00 -3.28991035648e+00
    -3.24307822238e+00 -3.19668991370e+00 -3.15073408223e+00 -3.10519940463e+00
    -3.06007456850e+00 -3.01534825760e+00 -2.97100913619e+00 -2.92704583226e+00
    -2.88344691960e+00 -2.84020089855e+00 -2.79729617518e+00 -2.75472103882e+00
    -2.71246363757e+00 -2.67051195159e+00 -2.62885376393e+00 -2.58747662835e+00
    -2.54636783394e+00 -2.50551436587e+00 -2.46490286177e+00 -2.42451956309e+00
    -2.38435026061e+00 -2.34438023313e+00 -2.30459417824e+00 -2.26497613383e+00
    -2.22550938868e+00 -2.18617638015e+00 -2.14695857657e+00 -2.10783634139e+00
    -2.06878877539e+00 -2.02979353254e+00 -1.99082660363e+00 -1.95186206080e+00
    -1.91287175359e+00 -1.87382494506e+00 -1.83468787273e+00 -1.79542321455e+00
    -1.75598943362e+00 -1.71633996650e+00 -1.67642220706e+00 -1.63617621990e+00
    -1.59553309032e+00 -1.55441277826e+00 -1.51272128251e+00 -1.47034682602e+00
    -1.42715461945e+00 -1.38297950336e+00 -1.33761532690e+00 -1.29079911991e+00
    -1.24218659598e+00 -1.19131245027e+00 -1.13752222366e+00 -1.07984647470e+00
    -1.01674459064e+00 -9.45506248577e-01 -8.60522629562e-01 -7.45906184286e-01
  </PP_LOCAL>
  <PP_NONLOCAL>
    <PP_BETA.1 type="real" size="400" columns="4" index="1" angular_momentum="0" cutoff_radius_index="400">
       8.68142635552e-11  2.77773710787e-09  2.10903567014e-08  8.88564048866e-08
       2.71096908896e-07  6.74359024274e-07  1.45700188498e-06  2.83941883482e-06
       5.11418346743e-06  8.65610697263e-06  1.39321945220e-05  2.15114883403e-05
       3.20747854907e-05  4.64242183918e-05  6.54926863429e-05  9.03531265455e-05
       1.22227613355e-04  1.62496274631e-04  2.12706014475e-04  2.74579031827e-04
       3.50021124712e-04  4.41129770327e-04  5.50201971337e-04  6.79741859372e-04
       8.32468046783e-04  1.01132071839e-03  1.21946845520e-03  1.46031478253e-03
       1.73750443547e-03  2.05492933493e-03  2.41673426823e-03  2.82732226820e-03
       3.29135968582e-03  3.81378095133e-03  4.39979301946e-03  5.05487949501e-03
       5.78480443512e-03  6.59561582521e-03  7.49364872595e-03  8.48552808888e-03
       9.57817123882e-03  1.07787900213e-02  1.20948926137e-02  1.35342849987e-02
       1.51050720991e-02  1.68156585733e-02  1.86747492698e-02  2.06913493397e-02
       2.28747640071e-02  2.52345979941e-02  2.77807545995e-02  3.05234344286e-02
       3.34731337709e-02  3.66406426216e-02  4.00370423422e-02  4.36737029544e-02
       4.75622800598e-02  5.17147113764e-02  5.61432128822e-02  6.08602745535e-02
       6.58786556824e-02  7.12113797589e-02  7.68717288964e-02  8.28732377802e-02
       8.92296871129e-02  9.59550965289e-02  1.03063716946e-01  1.10570022319e-01
       1.18488700754e-01  1.26834644941e-01  1.35622941857e-01  1.44868861679e-01
       1.54587845861e-01  1.64795494293e-01  1.75507551494e-01  1.86739891738e-01
       1.98508503051e-01  2.10829469984e-01  2.23718955056e-01  2.37193178784e-01
       2.51268398177e-01  2.65960883577e-01  2.81286893733e-01  2.97262648972e-01
       3.13904302323e-01  3.31227908462e-01  3.49249390309e-01  3.67984503137e-01
       3.87448796008e-01  4.07657570377e-01  4.28625835683e-01  4.50368261735e-01
       4.72899127728e-01  4.96232267664e-01  5.20381012018e-01  5.45358125431e-01
       5.71175740243e-01  5.97845285667e-01  6.25377412420e-01  6.53781912615e-01
       6.83067634740e-01  7.13242393549e-01  7.44312874718e-01  7.76284534106e-01
       8.09161491510e-01  8.42946418812e-01  8.77640422428e-01  9.13242920034e-01
       9.49751511541e-01  9.87161844357e-01  1.02546747301e+00  1.06465971328e+00
       1.10472749093e+00  1.14565718547e+00  1.18743246909e+00  1.23003414123e+00
       1.27343995928e+00  1.31762446603e+00  1.36255881442e+00  1.40821059052e+00
       1.45454363553e+00  1.50151786794e+00  1.54908910690e+00  1.59720889821e+00
       1.64582434431e+00  1.69487793987e+00  1.74430741486e+00  1.79404558685e+00
       1.84402022481e+00  1.89415392653e+00  1.94436401222e+00  1.99456243678e+00
       2.04465572354e+00  2.09454492245e+00  2.14412559564e+00  2.19328783358e+00
       2.24191630520e+00  2.28989034520e+00  2.33708408210e+00  2.38336661038e+00
       2.42860221019e+00  2.47265061795e+00  2.51536735122e+00  2.55660409074e+00
       2.59620912267e+00  2.63402784354e+00  2.66990333008e+00  2.70367697577e+00
       2.73518919515e+00  2.76428019681e+00  2.79079082459e+00  2.81456346635e+00